
 1360 atoms 
 6 atom types 
0.000000 	 4.919024 	 xlo xhi
-5.000000 	 43.340000 	 ylo yhi
-5.000000 	 216.800000 	 zlo zhi

 Masses 
 
1 	 12.0107 
2 	 12.0107 
3 	 12.0107 
4 	 12.0107 
5 	 12.0107 
6 	 12.0107 

  Atoms

1 	 1 	0.000000 	 0.000000 	 0.000000
2 	 1 	1.229756 	 0.710000 	 0.000000
3 	 1 	1.229756 	 2.130000 	 0.000000
4 	 1 	0.000000 	 2.840000 	 0.000000
5 	 1 	0.000000 	 4.260000 	 0.000000
6 	 1 	1.229756 	 4.970000 	 0.000000
7 	 1 	1.229756 	 6.390000 	 0.000000
8 	 1 	0.000000 	 7.100000 	 0.000000
9 	 1 	0.000000 	 8.520000 	 0.000000
10 	 1 	1.229756 	 9.230000 	 0.000000
11 	 1 	1.229756 	 10.650000 	 0.000000
12 	 1 	0.000000 	 11.360000 	 0.000000
13 	 1 	0.000000 	 12.780000 	 0.000000
14 	 1 	1.229756 	 13.490000 	 0.000000
15 	 1 	1.229756 	 14.910000 	 0.000000
16 	 1 	0.000000 	 15.620000 	 0.000000
17 	 1 	0.000000 	 17.040000 	 0.000000
18 	 1 	1.229756 	 17.750000 	 0.000000
19 	 1 	1.229756 	 19.170000 	 0.000000
20 	 1 	0.000000 	 19.880000 	 0.000000
21 	 1 	0.000000 	 21.300000 	 0.000000
22 	 1 	1.229756 	 22.010000 	 0.000000
23 	 1 	1.229756 	 23.430000 	 0.000000
24 	 1 	0.000000 	 24.140000 	 0.000000
25 	 1 	0.000000 	 25.560000 	 0.000000
26 	 1 	1.229756 	 26.270000 	 0.000000
27 	 1 	1.229756 	 27.690000 	 0.000000
28 	 1 	0.000000 	 28.400000 	 0.000000
29 	 1 	0.000000 	 29.820000 	 0.000000
30 	 1 	1.229756 	 30.530000 	 0.000000
31 	 1 	1.229756 	 31.950000 	 0.000000
32 	 1 	0.000000 	 32.660000 	 0.000000
33 	 1 	0.000000 	 34.080000 	 0.000000
34 	 1 	1.229756 	 34.790000 	 0.000000
35 	 1 	1.229756 	 36.210000 	 0.000000
36 	 1 	0.000000 	 36.920000 	 0.000000
37 	 1 	2.459512 	 0.000000 	 0.000000
38 	 1 	3.689268 	 0.710000 	 0.000000
39 	 1 	3.689268 	 2.130000 	 0.000000
40 	 1 	2.459512 	 2.840000 	 0.000000
41 	 1 	2.459512 	 4.260000 	 0.000000
42 	 1 	3.689268 	 4.970000 	 0.000000
43 	 1 	3.689268 	 6.390000 	 0.000000
44 	 1 	2.459512 	 7.100000 	 0.000000
45 	 1 	2.459512 	 8.520000 	 0.000000
46 	 1 	3.689268 	 9.230000 	 0.000000
47 	 1 	3.689268 	 10.650000 	 0.000000
48 	 1 	2.459512 	 11.360000 	 0.000000
49 	 1 	2.459512 	 12.780000 	 0.000000
50 	 1 	3.689268 	 13.490000 	 0.000000
51 	 1 	3.689268 	 14.910000 	 0.000000
52 	 1 	2.459512 	 15.620000 	 0.000000
53 	 1 	2.459512 	 17.040000 	 0.000000
54 	 1 	3.689268 	 17.750000 	 0.000000
55 	 1 	3.689268 	 19.170000 	 0.000000
56 	 1 	2.459512 	 19.880000 	 0.000000
57 	 1 	2.459512 	 21.300000 	 0.000000
58 	 1 	3.689268 	 22.010000 	 0.000000
59 	 1 	3.689268 	 23.430000 	 0.000000
60 	 1 	2.459512 	 24.140000 	 0.000000
61 	 1 	2.459512 	 25.560000 	 0.000000
62 	 1 	3.689268 	 26.270000 	 0.000000
63 	 1 	3.689268 	 27.690000 	 0.000000
64 	 1 	2.459512 	 28.400000 	 0.000000
65 	 1 	2.459512 	 29.820000 	 0.000000
66 	 1 	3.689268 	 30.530000 	 0.000000
67 	 1 	3.689268 	 31.950000 	 0.000000
68 	 1 	2.459512 	 32.660000 	 0.000000
69 	 1 	2.459512 	 34.080000 	 0.000000
70 	 1 	3.689268 	 34.790000 	 0.000000
71 	 1 	3.689268 	 36.210000 	 0.000000
72 	 1 	2.459512 	 36.920000 	 0.000000
73 	 1 	0.000000 	 1.420000 	 3.340000
74 	 1 	1.229756 	 2.130000 	 3.340000
75 	 1 	1.229756 	 3.550000 	 3.340000
76 	 2 	0.000000 	 4.260000 	 3.340000
77 	 2 	0.000000 	 5.680000 	 3.340000
78 	 2 	1.229756 	 6.390000 	 3.340000
79 	 2 	1.229756 	 7.810000 	 3.340000
80 	 2 	0.000000 	 8.520000 	 3.340000
81 	 2 	0.000000 	 9.940000 	 3.340000
82 	 2 	1.229756 	 10.650000 	 3.340000
83 	 2 	1.229756 	 12.070000 	 3.340000
84 	 2 	0.000000 	 12.780000 	 3.340000
85 	 2 	0.000000 	 14.200000 	 3.340000
86 	 2 	1.229756 	 14.910000 	 3.340000
87 	 2 	1.229756 	 16.330000 	 3.340000
88 	 2 	0.000000 	 17.040000 	 3.340000
89 	 2 	0.000000 	 18.460000 	 3.340000
90 	 2 	1.229756 	 19.170000 	 3.340000
91 	 2 	1.229756 	 20.590000 	 3.340000
92 	 2 	0.000000 	 21.300000 	 3.340000
93 	 2 	0.000000 	 22.720000 	 3.340000
94 	 2 	1.229756 	 23.430000 	 3.340000
95 	 2 	1.229756 	 24.850000 	 3.340000
96 	 2 	0.000000 	 25.560000 	 3.340000
97 	 2 	0.000000 	 26.980000 	 3.340000
98 	 2 	1.229756 	 27.690000 	 3.340000
99 	 2 	1.229756 	 29.110000 	 3.340000
100 	 2 	0.000000 	 29.820000 	 3.340000
101 	 2 	0.000000 	 31.240000 	 3.340000
102 	 2 	1.229756 	 31.950000 	 3.340000
103 	 2 	1.229756 	 33.370000 	 3.340000
104 	 1 	0.000000 	 34.080000 	 3.340000
105 	 1 	0.000000 	 35.500000 	 3.340000
106 	 1 	1.229756 	 36.210000 	 3.340000
107 	 1 	1.229756 	 37.630000 	 3.340000
108 	 1 	0.000000 	 38.340000 	 3.340000
109 	 1 	2.459512 	 1.420000 	 3.340000
110 	 1 	3.689268 	 2.130000 	 3.340000
111 	 1 	3.689268 	 3.550000 	 3.340000
112 	 2 	2.459512 	 4.260000 	 3.340000
113 	 2 	2.459512 	 5.680000 	 3.340000
114 	 2 	3.689268 	 6.390000 	 3.340000
115 	 2 	3.689268 	 7.810000 	 3.340000
116 	 2 	2.459512 	 8.520000 	 3.340000
117 	 2 	2.459512 	 9.940000 	 3.340000
118 	 2 	3.689268 	 10.650000 	 3.340000
119 	 2 	3.689268 	 12.070000 	 3.340000
120 	 2 	2.459512 	 12.780000 	 3.340000
121 	 2 	2.459512 	 14.200000 	 3.340000
122 	 2 	3.689268 	 14.910000 	 3.340000
123 	 2 	3.689268 	 16.330000 	 3.340000
124 	 2 	2.459512 	 17.040000 	 3.340000
125 	 2 	2.459512 	 18.460000 	 3.340000
126 	 2 	3.689268 	 19.170000 	 3.340000
127 	 2 	3.689268 	 20.590000 	 3.340000
128 	 2 	2.459512 	 21.300000 	 3.340000
129 	 2 	2.459512 	 22.720000 	 3.340000
130 	 2 	3.689268 	 23.430000 	 3.340000
131 	 2 	3.689268 	 24.850000 	 3.340000
132 	 2 	2.459512 	 25.560000 	 3.340000
133 	 2 	2.459512 	 26.980000 	 3.340000
134 	 2 	3.689268 	 27.690000 	 3.340000
135 	 2 	3.689268 	 29.110000 	 3.340000
136 	 2 	2.459512 	 29.820000 	 3.340000
137 	 2 	2.459512 	 31.240000 	 3.340000
138 	 2 	3.689268 	 31.950000 	 3.340000
139 	 2 	3.689268 	 33.370000 	 3.340000
140 	 1 	2.459512 	 34.080000 	 3.340000
141 	 1 	2.459512 	 35.500000 	 3.340000
142 	 1 	3.689268 	 36.210000 	 3.340000
143 	 1 	3.689268 	 37.630000 	 3.340000
144 	 1 	2.459512 	 38.340000 	 3.340000
145 	 1 	0.000000 	 0.000000 	 6.680000
146 	 1 	1.229756 	 0.710000 	 6.680000
147 	 1 	1.229756 	 2.130000 	 6.680000
148 	 1 	0.000000 	 2.840000 	 6.680000
149 	 2 	0.000000 	 4.260000 	 6.680000
150 	 2 	1.229756 	 4.970000 	 6.680000
151 	 2 	1.229756 	 6.390000 	 6.680000
152 	 2 	0.000000 	 7.100000 	 6.680000
153 	 2 	0.000000 	 8.520000 	 6.680000
154 	 2 	1.229756 	 9.230000 	 6.680000
155 	 2 	1.229756 	 10.650000 	 6.680000
156 	 2 	0.000000 	 11.360000 	 6.680000
157 	 2 	0.000000 	 12.780000 	 6.680000
158 	 2 	1.229756 	 13.490000 	 6.680000
159 	 2 	1.229756 	 14.910000 	 6.680000
160 	 2 	0.000000 	 15.620000 	 6.680000
161 	 2 	0.000000 	 17.040000 	 6.680000
162 	 2 	1.229756 	 17.750000 	 6.680000
163 	 2 	1.229756 	 19.170000 	 6.680000
164 	 2 	0.000000 	 19.880000 	 6.680000
165 	 2 	0.000000 	 21.300000 	 6.680000
166 	 2 	1.229756 	 22.010000 	 6.680000
167 	 2 	1.229756 	 23.430000 	 6.680000
168 	 2 	0.000000 	 24.140000 	 6.680000
169 	 2 	0.000000 	 25.560000 	 6.680000
170 	 2 	1.229756 	 26.270000 	 6.680000
171 	 2 	1.229756 	 27.690000 	 6.680000
172 	 2 	0.000000 	 28.400000 	 6.680000
173 	 2 	0.000000 	 29.820000 	 6.680000
174 	 2 	1.229756 	 30.530000 	 6.680000
175 	 2 	1.229756 	 31.950000 	 6.680000
176 	 2 	0.000000 	 32.660000 	 6.680000
177 	 1 	0.000000 	 34.080000 	 6.680000
178 	 1 	1.229756 	 34.790000 	 6.680000
179 	 1 	1.229756 	 36.210000 	 6.680000
180 	 1 	0.000000 	 36.920000 	 6.680000
181 	 1 	2.459512 	 0.000000 	 6.680000
182 	 1 	3.689268 	 0.710000 	 6.680000
183 	 1 	3.689268 	 2.130000 	 6.680000
184 	 1 	2.459512 	 2.840000 	 6.680000
185 	 2 	2.459512 	 4.260000 	 6.680000
186 	 2 	3.689268 	 4.970000 	 6.680000
187 	 2 	3.689268 	 6.390000 	 6.680000
188 	 2 	2.459512 	 7.100000 	 6.680000
189 	 2 	2.459512 	 8.520000 	 6.680000
190 	 2 	3.689268 	 9.230000 	 6.680000
191 	 2 	3.689268 	 10.650000 	 6.680000
192 	 2 	2.459512 	 11.360000 	 6.680000
193 	 2 	2.459512 	 12.780000 	 6.680000
194 	 2 	3.689268 	 13.490000 	 6.680000
195 	 2 	3.689268 	 14.910000 	 6.680000
196 	 2 	2.459512 	 15.620000 	 6.680000
197 	 2 	2.459512 	 17.040000 	 6.680000
198 	 2 	3.689268 	 17.750000 	 6.680000
199 	 2 	3.689268 	 19.170000 	 6.680000
200 	 2 	2.459512 	 19.880000 	 6.680000
201 	 2 	2.459512 	 21.300000 	 6.680000
202 	 2 	3.689268 	 22.010000 	 6.680000
203 	 2 	3.689268 	 23.430000 	 6.680000
204 	 2 	2.459512 	 24.140000 	 6.680000
205 	 2 	2.459512 	 25.560000 	 6.680000
206 	 2 	3.689268 	 26.270000 	 6.680000
207 	 2 	3.689268 	 27.690000 	 6.680000
208 	 2 	2.459512 	 28.400000 	 6.680000
209 	 2 	2.459512 	 29.820000 	 6.680000
210 	 2 	3.689268 	 30.530000 	 6.680000
211 	 2 	3.689268 	 31.950000 	 6.680000
212 	 2 	2.459512 	 32.660000 	 6.680000
213 	 1 	2.459512 	 34.080000 	 6.680000
214 	 1 	3.689268 	 34.790000 	 6.680000
215 	 1 	3.689268 	 36.210000 	 6.680000
216 	 1 	2.459512 	 36.920000 	 6.680000
217 	 1 	0.000000 	 1.420000 	 10.020000
218 	 1 	1.229756 	 2.130000 	 10.020000
219 	 1 	1.229756 	 3.550000 	 10.020000
220 	 2 	0.000000 	 4.260000 	 10.020000
221 	 2 	0.000000 	 5.680000 	 10.020000
222 	 2 	1.229756 	 6.390000 	 10.020000
223 	 2 	1.229756 	 7.810000 	 10.020000
224 	 2 	0.000000 	 8.520000 	 10.020000
225 	 2 	0.000000 	 9.940000 	 10.020000
226 	 2 	1.229756 	 10.650000 	 10.020000
227 	 2 	1.229756 	 12.070000 	 10.020000
228 	 2 	0.000000 	 12.780000 	 10.020000
229 	 2 	0.000000 	 14.200000 	 10.020000
230 	 2 	1.229756 	 14.910000 	 10.020000
231 	 2 	1.229756 	 16.330000 	 10.020000
232 	 2 	0.000000 	 17.040000 	 10.020000
233 	 2 	0.000000 	 18.460000 	 10.020000
234 	 2 	1.229756 	 19.170000 	 10.020000
235 	 2 	1.229756 	 20.590000 	 10.020000
236 	 2 	0.000000 	 21.300000 	 10.020000
237 	 2 	0.000000 	 22.720000 	 10.020000
238 	 2 	1.229756 	 23.430000 	 10.020000
239 	 2 	1.229756 	 24.850000 	 10.020000
240 	 2 	0.000000 	 25.560000 	 10.020000
241 	 2 	0.000000 	 26.980000 	 10.020000
242 	 2 	1.229756 	 27.690000 	 10.020000
243 	 2 	1.229756 	 29.110000 	 10.020000
244 	 2 	0.000000 	 29.820000 	 10.020000
245 	 2 	0.000000 	 31.240000 	 10.020000
246 	 2 	1.229756 	 31.950000 	 10.020000
247 	 2 	1.229756 	 33.370000 	 10.020000
248 	 1 	0.000000 	 34.080000 	 10.020000
249 	 1 	0.000000 	 35.500000 	 10.020000
250 	 1 	1.229756 	 36.210000 	 10.020000
251 	 1 	1.229756 	 37.630000 	 10.020000
252 	 1 	0.000000 	 38.340000 	 10.020000
253 	 1 	2.459512 	 1.420000 	 10.020000
254 	 1 	3.689268 	 2.130000 	 10.020000
255 	 1 	3.689268 	 3.550000 	 10.020000
256 	 2 	2.459512 	 4.260000 	 10.020000
257 	 2 	2.459512 	 5.680000 	 10.020000
258 	 2 	3.689268 	 6.390000 	 10.020000
259 	 2 	3.689268 	 7.810000 	 10.020000
260 	 2 	2.459512 	 8.520000 	 10.020000
261 	 2 	2.459512 	 9.940000 	 10.020000
262 	 2 	3.689268 	 10.650000 	 10.020000
263 	 2 	3.689268 	 12.070000 	 10.020000
264 	 2 	2.459512 	 12.780000 	 10.020000
265 	 2 	2.459512 	 14.200000 	 10.020000
266 	 2 	3.689268 	 14.910000 	 10.020000
267 	 2 	3.689268 	 16.330000 	 10.020000
268 	 2 	2.459512 	 17.040000 	 10.020000
269 	 2 	2.459512 	 18.460000 	 10.020000
270 	 2 	3.689268 	 19.170000 	 10.020000
271 	 2 	3.689268 	 20.590000 	 10.020000
272 	 2 	2.459512 	 21.300000 	 10.020000
273 	 2 	2.459512 	 22.720000 	 10.020000
274 	 2 	3.689268 	 23.430000 	 10.020000
275 	 2 	3.689268 	 24.850000 	 10.020000
276 	 2 	2.459512 	 25.560000 	 10.020000
277 	 2 	2.459512 	 26.980000 	 10.020000
278 	 2 	3.689268 	 27.690000 	 10.020000
279 	 2 	3.689268 	 29.110000 	 10.020000
280 	 2 	2.459512 	 29.820000 	 10.020000
281 	 2 	2.459512 	 31.240000 	 10.020000
282 	 2 	3.689268 	 31.950000 	 10.020000
283 	 2 	3.689268 	 33.370000 	 10.020000
284 	 1 	2.459512 	 34.080000 	 10.020000
285 	 1 	2.459512 	 35.500000 	 10.020000
286 	 1 	3.689268 	 36.210000 	 10.020000
287 	 1 	3.689268 	 37.630000 	 10.020000
288 	 1 	2.459512 	 38.340000 	 10.020000
289 	 1 	0.000000 	 0.000000 	 13.360000
290 	 1 	1.229756 	 0.710000 	 13.360000
291 	 1 	1.229756 	 2.130000 	 13.360000
292 	 1 	0.000000 	 2.840000 	 13.360000
293 	 2 	0.000000 	 4.260000 	 13.360000
294 	 2 	1.229756 	 4.970000 	 13.360000
295 	 2 	1.229756 	 6.390000 	 13.360000
296 	 2 	0.000000 	 7.100000 	 13.360000
297 	 2 	0.000000 	 8.520000 	 13.360000
298 	 2 	1.229756 	 9.230000 	 13.360000
299 	 2 	1.229756 	 10.650000 	 13.360000
300 	 2 	0.000000 	 11.360000 	 13.360000
301 	 2 	0.000000 	 12.780000 	 13.360000
302 	 2 	1.229756 	 13.490000 	 13.360000
303 	 2 	1.229756 	 14.910000 	 13.360000
304 	 2 	0.000000 	 15.620000 	 13.360000
305 	 2 	0.000000 	 17.040000 	 13.360000
306 	 2 	1.229756 	 17.750000 	 13.360000
307 	 2 	1.229756 	 19.170000 	 13.360000
308 	 2 	0.000000 	 19.880000 	 13.360000
309 	 2 	0.000000 	 21.300000 	 13.360000
310 	 2 	1.229756 	 22.010000 	 13.360000
311 	 2 	1.229756 	 23.430000 	 13.360000
312 	 2 	0.000000 	 24.140000 	 13.360000
313 	 2 	0.000000 	 25.560000 	 13.360000
314 	 2 	1.229756 	 26.270000 	 13.360000
315 	 2 	1.229756 	 27.690000 	 13.360000
316 	 2 	0.000000 	 28.400000 	 13.360000
317 	 2 	0.000000 	 29.820000 	 13.360000
318 	 2 	1.229756 	 30.530000 	 13.360000
319 	 2 	1.229756 	 31.950000 	 13.360000
320 	 2 	0.000000 	 32.660000 	 13.360000
321 	 1 	0.000000 	 34.080000 	 13.360000
322 	 1 	1.229756 	 34.790000 	 13.360000
323 	 1 	1.229756 	 36.210000 	 13.360000
324 	 1 	0.000000 	 36.920000 	 13.360000
325 	 1 	2.459512 	 0.000000 	 13.360000
326 	 1 	3.689268 	 0.710000 	 13.360000
327 	 1 	3.689268 	 2.130000 	 13.360000
328 	 1 	2.459512 	 2.840000 	 13.360000
329 	 2 	2.459512 	 4.260000 	 13.360000
330 	 2 	3.689268 	 4.970000 	 13.360000
331 	 2 	3.689268 	 6.390000 	 13.360000
332 	 2 	2.459512 	 7.100000 	 13.360000
333 	 2 	2.459512 	 8.520000 	 13.360000
334 	 2 	3.689268 	 9.230000 	 13.360000
335 	 2 	3.689268 	 10.650000 	 13.360000
336 	 2 	2.459512 	 11.360000 	 13.360000
337 	 2 	2.459512 	 12.780000 	 13.360000
338 	 2 	3.689268 	 13.490000 	 13.360000
339 	 2 	3.689268 	 14.910000 	 13.360000
340 	 2 	2.459512 	 15.620000 	 13.360000
341 	 2 	2.459512 	 17.040000 	 13.360000
342 	 2 	3.689268 	 17.750000 	 13.360000
343 	 2 	3.689268 	 19.170000 	 13.360000
344 	 2 	2.459512 	 19.880000 	 13.360000
345 	 2 	2.459512 	 21.300000 	 13.360000
346 	 2 	3.689268 	 22.010000 	 13.360000
347 	 2 	3.689268 	 23.430000 	 13.360000
348 	 2 	2.459512 	 24.140000 	 13.360000
349 	 2 	2.459512 	 25.560000 	 13.360000
350 	 2 	3.689268 	 26.270000 	 13.360000
351 	 2 	3.689268 	 27.690000 	 13.360000
352 	 2 	2.459512 	 28.400000 	 13.360000
353 	 2 	2.459512 	 29.820000 	 13.360000
354 	 2 	3.689268 	 30.530000 	 13.360000
355 	 2 	3.689268 	 31.950000 	 13.360000
356 	 2 	2.459512 	 32.660000 	 13.360000
357 	 1 	2.459512 	 34.080000 	 13.360000
358 	 1 	3.689268 	 34.790000 	 13.360000
359 	 1 	3.689268 	 36.210000 	 13.360000
360 	 1 	2.459512 	 36.920000 	 13.360000
361 	 1 	0.000000 	 1.420000 	 16.700000
362 	 1 	1.229756 	 2.130000 	 16.700000
363 	 1 	1.229756 	 3.550000 	 16.700000
364 	 2 	0.000000 	 4.260000 	 16.700000
365 	 2 	0.000000 	 5.680000 	 16.700000
366 	 2 	1.229756 	 6.390000 	 16.700000
367 	 2 	1.229756 	 7.810000 	 16.700000
368 	 2 	0.000000 	 8.520000 	 16.700000
369 	 2 	0.000000 	 9.940000 	 16.700000
370 	 2 	1.229756 	 10.650000 	 16.700000
371 	 2 	1.229756 	 12.070000 	 16.700000
372 	 2 	0.000000 	 12.780000 	 16.700000
373 	 2 	0.000000 	 14.200000 	 16.700000
374 	 2 	1.229756 	 14.910000 	 16.700000
375 	 2 	1.229756 	 16.330000 	 16.700000
376 	 2 	0.000000 	 17.040000 	 16.700000
377 	 2 	0.000000 	 18.460000 	 16.700000
378 	 2 	1.229756 	 19.170000 	 16.700000
379 	 2 	1.229756 	 20.590000 	 16.700000
380 	 2 	0.000000 	 21.300000 	 16.700000
381 	 2 	0.000000 	 22.720000 	 16.700000
382 	 2 	1.229756 	 23.430000 	 16.700000
383 	 2 	1.229756 	 24.850000 	 16.700000
384 	 2 	0.000000 	 25.560000 	 16.700000
385 	 2 	0.000000 	 26.980000 	 16.700000
386 	 2 	1.229756 	 27.690000 	 16.700000
387 	 2 	1.229756 	 29.110000 	 16.700000
388 	 2 	0.000000 	 29.820000 	 16.700000
389 	 2 	0.000000 	 31.240000 	 16.700000
390 	 2 	1.229756 	 31.950000 	 16.700000
391 	 2 	1.229756 	 33.370000 	 16.700000
392 	 1 	0.000000 	 34.080000 	 16.700000
393 	 1 	0.000000 	 35.500000 	 16.700000
394 	 1 	1.229756 	 36.210000 	 16.700000
395 	 1 	1.229756 	 37.630000 	 16.700000
396 	 1 	0.000000 	 38.340000 	 16.700000
397 	 1 	2.459512 	 1.420000 	 16.700000
398 	 1 	3.689268 	 2.130000 	 16.700000
399 	 1 	3.689268 	 3.550000 	 16.700000
400 	 2 	2.459512 	 4.260000 	 16.700000
401 	 2 	2.459512 	 5.680000 	 16.700000
402 	 2 	3.689268 	 6.390000 	 16.700000
403 	 2 	3.689268 	 7.810000 	 16.700000
404 	 2 	2.459512 	 8.520000 	 16.700000
405 	 2 	2.459512 	 9.940000 	 16.700000
406 	 2 	3.689268 	 10.650000 	 16.700000
407 	 2 	3.689268 	 12.070000 	 16.700000
408 	 2 	2.459512 	 12.780000 	 16.700000
409 	 2 	2.459512 	 14.200000 	 16.700000
410 	 2 	3.689268 	 14.910000 	 16.700000
411 	 2 	3.689268 	 16.330000 	 16.700000
412 	 2 	2.459512 	 17.040000 	 16.700000
413 	 2 	2.459512 	 18.460000 	 16.700000
414 	 2 	3.689268 	 19.170000 	 16.700000
415 	 2 	3.689268 	 20.590000 	 16.700000
416 	 2 	2.459512 	 21.300000 	 16.700000
417 	 2 	2.459512 	 22.720000 	 16.700000
418 	 2 	3.689268 	 23.430000 	 16.700000
419 	 2 	3.689268 	 24.850000 	 16.700000
420 	 2 	2.459512 	 25.560000 	 16.700000
421 	 2 	2.459512 	 26.980000 	 16.700000
422 	 2 	3.689268 	 27.690000 	 16.700000
423 	 2 	3.689268 	 29.110000 	 16.700000
424 	 2 	2.459512 	 29.820000 	 16.700000
425 	 2 	2.459512 	 31.240000 	 16.700000
426 	 2 	3.689268 	 31.950000 	 16.700000
427 	 2 	3.689268 	 33.370000 	 16.700000
428 	 1 	2.459512 	 34.080000 	 16.700000
429 	 1 	2.459512 	 35.500000 	 16.700000
430 	 1 	3.689268 	 36.210000 	 16.700000
431 	 1 	3.689268 	 37.630000 	 16.700000
432 	 1 	2.459512 	 38.340000 	 16.700000
433 	 1 	0.000000 	 0.000000 	 20.040000
434 	 1 	1.229756 	 0.710000 	 20.040000
435 	 1 	1.229756 	 2.130000 	 20.040000
436 	 1 	0.000000 	 2.840000 	 20.040000
437 	 2 	0.000000 	 4.260000 	 20.040000
438 	 2 	1.229756 	 4.970000 	 20.040000
439 	 2 	1.229756 	 6.390000 	 20.040000
440 	 2 	0.000000 	 7.100000 	 20.040000
441 	 2 	0.000000 	 8.520000 	 20.040000
442 	 2 	1.229756 	 9.230000 	 20.040000
443 	 2 	1.229756 	 10.650000 	 20.040000
444 	 2 	0.000000 	 11.360000 	 20.040000
445 	 2 	0.000000 	 12.780000 	 20.040000
446 	 2 	1.229756 	 13.490000 	 20.040000
447 	 2 	1.229756 	 14.910000 	 20.040000
448 	 2 	0.000000 	 15.620000 	 20.040000
449 	 2 	0.000000 	 17.040000 	 20.040000
450 	 2 	1.229756 	 17.750000 	 20.040000
451 	 2 	1.229756 	 19.170000 	 20.040000
452 	 2 	0.000000 	 19.880000 	 20.040000
453 	 2 	0.000000 	 21.300000 	 20.040000
454 	 2 	1.229756 	 22.010000 	 20.040000
455 	 2 	1.229756 	 23.430000 	 20.040000
456 	 2 	0.000000 	 24.140000 	 20.040000
457 	 2 	0.000000 	 25.560000 	 20.040000
458 	 2 	1.229756 	 26.270000 	 20.040000
459 	 2 	1.229756 	 27.690000 	 20.040000
460 	 2 	0.000000 	 28.400000 	 20.040000
461 	 2 	0.000000 	 29.820000 	 20.040000
462 	 2 	1.229756 	 30.530000 	 20.040000
463 	 2 	1.229756 	 31.950000 	 20.040000
464 	 2 	0.000000 	 32.660000 	 20.040000
465 	 1 	0.000000 	 34.080000 	 20.040000
466 	 1 	1.229756 	 34.790000 	 20.040000
467 	 1 	1.229756 	 36.210000 	 20.040000
468 	 1 	0.000000 	 36.920000 	 20.040000
469 	 1 	2.459512 	 0.000000 	 20.040000
470 	 1 	3.689268 	 0.710000 	 20.040000
471 	 1 	3.689268 	 2.130000 	 20.040000
472 	 1 	2.459512 	 2.840000 	 20.040000
473 	 2 	2.459512 	 4.260000 	 20.040000
474 	 2 	3.689268 	 4.970000 	 20.040000
475 	 2 	3.689268 	 6.390000 	 20.040000
476 	 2 	2.459512 	 7.100000 	 20.040000
477 	 2 	2.459512 	 8.520000 	 20.040000
478 	 2 	3.689268 	 9.230000 	 20.040000
479 	 2 	3.689268 	 10.650000 	 20.040000
480 	 2 	2.459512 	 11.360000 	 20.040000
481 	 2 	2.459512 	 12.780000 	 20.040000
482 	 2 	3.689268 	 13.490000 	 20.040000
483 	 2 	3.689268 	 14.910000 	 20.040000
484 	 2 	2.459512 	 15.620000 	 20.040000
485 	 2 	2.459512 	 17.040000 	 20.040000
486 	 2 	3.689268 	 17.750000 	 20.040000
487 	 2 	3.689268 	 19.170000 	 20.040000
488 	 2 	2.459512 	 19.880000 	 20.040000
489 	 2 	2.459512 	 21.300000 	 20.040000
490 	 2 	3.689268 	 22.010000 	 20.040000
491 	 2 	3.689268 	 23.430000 	 20.040000
492 	 2 	2.459512 	 24.140000 	 20.040000
493 	 2 	2.459512 	 25.560000 	 20.040000
494 	 2 	3.689268 	 26.270000 	 20.040000
495 	 2 	3.689268 	 27.690000 	 20.040000
496 	 2 	2.459512 	 28.400000 	 20.040000
497 	 2 	2.459512 	 29.820000 	 20.040000
498 	 2 	3.689268 	 30.530000 	 20.040000
499 	 2 	3.689268 	 31.950000 	 20.040000
500 	 2 	2.459512 	 32.660000 	 20.040000
501 	 1 	2.459512 	 34.080000 	 20.040000
502 	 1 	3.689268 	 34.790000 	 20.040000
503 	 1 	3.689268 	 36.210000 	 20.040000
504 	 1 	2.459512 	 36.920000 	 20.040000
505 	 1 	0.000000 	 1.420000 	 23.380000
506 	 1 	1.229756 	 2.130000 	 23.380000
507 	 1 	1.229756 	 3.550000 	 23.380000
508 	 2 	0.000000 	 4.260000 	 23.380000
509 	 2 	0.000000 	 5.680000 	 23.380000
510 	 2 	1.229756 	 6.390000 	 23.380000
511 	 2 	1.229756 	 7.810000 	 23.380000
512 	 2 	0.000000 	 8.520000 	 23.380000
513 	 2 	0.000000 	 9.940000 	 23.380000
514 	 2 	1.229756 	 10.650000 	 23.380000
515 	 2 	1.229756 	 12.070000 	 23.380000
516 	 2 	0.000000 	 12.780000 	 23.380000
517 	 2 	0.000000 	 14.200000 	 23.380000
518 	 2 	1.229756 	 14.910000 	 23.380000
519 	 2 	1.229756 	 16.330000 	 23.380000
520 	 2 	0.000000 	 17.040000 	 23.380000
521 	 2 	0.000000 	 18.460000 	 23.380000
522 	 2 	1.229756 	 19.170000 	 23.380000
523 	 2 	1.229756 	 20.590000 	 23.380000
524 	 2 	0.000000 	 21.300000 	 23.380000
525 	 2 	0.000000 	 22.720000 	 23.380000
526 	 2 	1.229756 	 23.430000 	 23.380000
527 	 2 	1.229756 	 24.850000 	 23.380000
528 	 2 	0.000000 	 25.560000 	 23.380000
529 	 2 	0.000000 	 26.980000 	 23.380000
530 	 2 	1.229756 	 27.690000 	 23.380000
531 	 2 	1.229756 	 29.110000 	 23.380000
532 	 2 	0.000000 	 29.820000 	 23.380000
533 	 2 	0.000000 	 31.240000 	 23.380000
534 	 2 	1.229756 	 31.950000 	 23.380000
535 	 2 	1.229756 	 33.370000 	 23.380000
536 	 1 	0.000000 	 34.080000 	 23.380000
537 	 1 	0.000000 	 35.500000 	 23.380000
538 	 1 	1.229756 	 36.210000 	 23.380000
539 	 1 	1.229756 	 37.630000 	 23.380000
540 	 1 	0.000000 	 38.340000 	 23.380000
541 	 1 	2.459512 	 1.420000 	 23.380000
542 	 1 	3.689268 	 2.130000 	 23.380000
543 	 1 	3.689268 	 3.550000 	 23.380000
544 	 2 	2.459512 	 4.260000 	 23.380000
545 	 2 	2.459512 	 5.680000 	 23.380000
546 	 2 	3.689268 	 6.390000 	 23.380000
547 	 2 	3.689268 	 7.810000 	 23.380000
548 	 2 	2.459512 	 8.520000 	 23.380000
549 	 2 	2.459512 	 9.940000 	 23.380000
550 	 2 	3.689268 	 10.650000 	 23.380000
551 	 2 	3.689268 	 12.070000 	 23.380000
552 	 2 	2.459512 	 12.780000 	 23.380000
553 	 2 	2.459512 	 14.200000 	 23.380000
554 	 2 	3.689268 	 14.910000 	 23.380000
555 	 2 	3.689268 	 16.330000 	 23.380000
556 	 2 	2.459512 	 17.040000 	 23.380000
557 	 2 	2.459512 	 18.460000 	 23.380000
558 	 2 	3.689268 	 19.170000 	 23.380000
559 	 2 	3.689268 	 20.590000 	 23.380000
560 	 2 	2.459512 	 21.300000 	 23.380000
561 	 2 	2.459512 	 22.720000 	 23.380000
562 	 2 	3.689268 	 23.430000 	 23.380000
563 	 2 	3.689268 	 24.850000 	 23.380000
564 	 2 	2.459512 	 25.560000 	 23.380000
565 	 2 	2.459512 	 26.980000 	 23.380000
566 	 2 	3.689268 	 27.690000 	 23.380000
567 	 2 	3.689268 	 29.110000 	 23.380000
568 	 2 	2.459512 	 29.820000 	 23.380000
569 	 2 	2.459512 	 31.240000 	 23.380000
570 	 2 	3.689268 	 31.950000 	 23.380000
571 	 2 	3.689268 	 33.370000 	 23.380000
572 	 1 	2.459512 	 34.080000 	 23.380000
573 	 1 	2.459512 	 35.500000 	 23.380000
574 	 1 	3.689268 	 36.210000 	 23.380000
575 	 1 	3.689268 	 37.630000 	 23.380000
576 	 1 	2.459512 	 38.340000 	 23.380000
577 	 1 	0.000000 	 0.000000 	 26.720000
578 	 1 	1.229756 	 0.710000 	 26.720000
579 	 1 	1.229756 	 2.130000 	 26.720000
580 	 1 	0.000000 	 2.840000 	 26.720000
581 	 2 	0.000000 	 4.260000 	 26.720000
582 	 2 	1.229756 	 4.970000 	 26.720000
583 	 2 	1.229756 	 6.390000 	 26.720000
584 	 2 	0.000000 	 7.100000 	 26.720000
585 	 2 	0.000000 	 8.520000 	 26.720000
586 	 2 	1.229756 	 9.230000 	 26.720000
587 	 2 	1.229756 	 10.650000 	 26.720000
588 	 2 	0.000000 	 11.360000 	 26.720000
589 	 2 	0.000000 	 12.780000 	 26.720000
590 	 2 	1.229756 	 13.490000 	 26.720000
591 	 2 	1.229756 	 14.910000 	 26.720000
592 	 2 	0.000000 	 15.620000 	 26.720000
593 	 2 	0.000000 	 17.040000 	 26.720000
594 	 2 	1.229756 	 17.750000 	 26.720000
595 	 2 	1.229756 	 19.170000 	 26.720000
596 	 2 	0.000000 	 19.880000 	 26.720000
597 	 2 	0.000000 	 21.300000 	 26.720000
598 	 2 	1.229756 	 22.010000 	 26.720000
599 	 2 	1.229756 	 23.430000 	 26.720000
600 	 2 	0.000000 	 24.140000 	 26.720000
601 	 2 	0.000000 	 25.560000 	 26.720000
602 	 2 	1.229756 	 26.270000 	 26.720000
603 	 2 	1.229756 	 27.690000 	 26.720000
604 	 2 	0.000000 	 28.400000 	 26.720000
605 	 2 	0.000000 	 29.820000 	 26.720000
606 	 2 	1.229756 	 30.530000 	 26.720000
607 	 2 	1.229756 	 31.950000 	 26.720000
608 	 2 	0.000000 	 32.660000 	 26.720000
609 	 1 	0.000000 	 34.080000 	 26.720000
610 	 1 	1.229756 	 34.790000 	 26.720000
611 	 1 	1.229756 	 36.210000 	 26.720000
612 	 1 	0.000000 	 36.920000 	 26.720000
613 	 1 	2.459512 	 0.000000 	 26.720000
614 	 1 	3.689268 	 0.710000 	 26.720000
615 	 1 	3.689268 	 2.130000 	 26.720000
616 	 1 	2.459512 	 2.840000 	 26.720000
617 	 2 	2.459512 	 4.260000 	 26.720000
618 	 2 	3.689268 	 4.970000 	 26.720000
619 	 2 	3.689268 	 6.390000 	 26.720000
620 	 2 	2.459512 	 7.100000 	 26.720000
621 	 2 	2.459512 	 8.520000 	 26.720000
622 	 2 	3.689268 	 9.230000 	 26.720000
623 	 2 	3.689268 	 10.650000 	 26.720000
624 	 2 	2.459512 	 11.360000 	 26.720000
625 	 2 	2.459512 	 12.780000 	 26.720000
626 	 2 	3.689268 	 13.490000 	 26.720000
627 	 2 	3.689268 	 14.910000 	 26.720000
628 	 2 	2.459512 	 15.620000 	 26.720000
629 	 2 	2.459512 	 17.040000 	 26.720000
630 	 2 	3.689268 	 17.750000 	 26.720000
631 	 2 	3.689268 	 19.170000 	 26.720000
632 	 2 	2.459512 	 19.880000 	 26.720000
633 	 2 	2.459512 	 21.300000 	 26.720000
634 	 2 	3.689268 	 22.010000 	 26.720000
635 	 2 	3.689268 	 23.430000 	 26.720000
636 	 2 	2.459512 	 24.140000 	 26.720000
637 	 2 	2.459512 	 25.560000 	 26.720000
638 	 2 	3.689268 	 26.270000 	 26.720000
639 	 2 	3.689268 	 27.690000 	 26.720000
640 	 2 	2.459512 	 28.400000 	 26.720000
641 	 2 	2.459512 	 29.820000 	 26.720000
642 	 2 	3.689268 	 30.530000 	 26.720000
643 	 2 	3.689268 	 31.950000 	 26.720000
644 	 2 	2.459512 	 32.660000 	 26.720000
645 	 1 	2.459512 	 34.080000 	 26.720000
646 	 1 	3.689268 	 34.790000 	 26.720000
647 	 1 	3.689268 	 36.210000 	 26.720000
648 	 1 	2.459512 	 36.920000 	 26.720000
649 	 1 	0.000000 	 1.420000 	 30.060000
650 	 1 	1.229756 	 2.130000 	 30.060000
651 	 1 	1.229756 	 3.550000 	 30.060000
652 	 2 	0.000000 	 4.260000 	 30.060000
653 	 2 	0.000000 	 5.680000 	 30.060000
654 	 2 	1.229756 	 6.390000 	 30.060000
655 	 2 	1.229756 	 7.810000 	 30.060000
656 	 2 	0.000000 	 8.520000 	 30.060000
657 	 2 	0.000000 	 9.940000 	 30.060000
658 	 2 	1.229756 	 10.650000 	 30.060000
659 	 2 	1.229756 	 12.070000 	 30.060000
660 	 2 	0.000000 	 12.780000 	 30.060000
661 	 2 	0.000000 	 14.200000 	 30.060000
662 	 2 	1.229756 	 14.910000 	 30.060000
663 	 2 	1.229756 	 16.330000 	 30.060000
664 	 2 	0.000000 	 17.040000 	 30.060000
665 	 2 	0.000000 	 18.460000 	 30.060000
666 	 2 	1.229756 	 19.170000 	 30.060000
667 	 2 	1.229756 	 20.590000 	 30.060000
668 	 2 	0.000000 	 21.300000 	 30.060000
669 	 2 	0.000000 	 22.720000 	 30.060000
670 	 2 	1.229756 	 23.430000 	 30.060000
671 	 2 	1.229756 	 24.850000 	 30.060000
672 	 2 	0.000000 	 25.560000 	 30.060000
673 	 2 	0.000000 	 26.980000 	 30.060000
674 	 2 	1.229756 	 27.690000 	 30.060000
675 	 2 	1.229756 	 29.110000 	 30.060000
676 	 2 	0.000000 	 29.820000 	 30.060000
677 	 2 	0.000000 	 31.240000 	 30.060000
678 	 2 	1.229756 	 31.950000 	 30.060000
679 	 2 	1.229756 	 33.370000 	 30.060000
680 	 1 	0.000000 	 34.080000 	 30.060000
681 	 1 	0.000000 	 35.500000 	 30.060000
682 	 1 	1.229756 	 36.210000 	 30.060000
683 	 1 	1.229756 	 37.630000 	 30.060000
684 	 1 	0.000000 	 38.340000 	 30.060000
685 	 1 	2.459512 	 1.420000 	 30.060000
686 	 1 	3.689268 	 2.130000 	 30.060000
687 	 1 	3.689268 	 3.550000 	 30.060000
688 	 2 	2.459512 	 4.260000 	 30.060000
689 	 2 	2.459512 	 5.680000 	 30.060000
690 	 2 	3.689268 	 6.390000 	 30.060000
691 	 2 	3.689268 	 7.810000 	 30.060000
692 	 2 	2.459512 	 8.520000 	 30.060000
693 	 2 	2.459512 	 9.940000 	 30.060000
694 	 2 	3.689268 	 10.650000 	 30.060000
695 	 2 	3.689268 	 12.070000 	 30.060000
696 	 2 	2.459512 	 12.780000 	 30.060000
697 	 2 	2.459512 	 14.200000 	 30.060000
698 	 2 	3.689268 	 14.910000 	 30.060000
699 	 2 	3.689268 	 16.330000 	 30.060000
700 	 2 	2.459512 	 17.040000 	 30.060000
701 	 2 	2.459512 	 18.460000 	 30.060000
702 	 2 	3.689268 	 19.170000 	 30.060000
703 	 2 	3.689268 	 20.590000 	 30.060000
704 	 2 	2.459512 	 21.300000 	 30.060000
705 	 2 	2.459512 	 22.720000 	 30.060000
706 	 2 	3.689268 	 23.430000 	 30.060000
707 	 2 	3.689268 	 24.850000 	 30.060000
708 	 2 	2.459512 	 25.560000 	 30.060000
709 	 2 	2.459512 	 26.980000 	 30.060000
710 	 2 	3.689268 	 27.690000 	 30.060000
711 	 2 	3.689268 	 29.110000 	 30.060000
712 	 2 	2.459512 	 29.820000 	 30.060000
713 	 2 	2.459512 	 31.240000 	 30.060000
714 	 2 	3.689268 	 31.950000 	 30.060000
715 	 2 	3.689268 	 33.370000 	 30.060000
716 	 1 	2.459512 	 34.080000 	 30.060000
717 	 1 	2.459512 	 35.500000 	 30.060000
718 	 1 	3.689268 	 36.210000 	 30.060000
719 	 1 	3.689268 	 37.630000 	 30.060000
720 	 1 	2.459512 	 38.340000 	 30.060000
721 	 1 	0.000000 	 0.000000 	 33.400000