
20388 atoms 
8 atom types 
0.000000 	 597.661452 	 xlo xhi
-5.000000 	 17.780000 	 ylo yhi
-5.000000 	 619.811696 	 zlo zhi

 Masses 

1 	 12.0107 
2 	 12.0107 
3 	 12.0107 
4 	 12.0107 
5 	 12.0107 
6 	 12.0107 
7 	 12.0107 
8 	 12.0107 

Atoms
 
1 	 1 	0.000000 	 0.000000 	 0.000000 
2 	 1 	1.229756 	 0.710000 	 0.000000 
3 	 1 	1.229756 	 2.130000 	 0.000000 
4 	 1 	0.000000 	 2.840000 	 0.000000 
5 	 1 	0.000000 	 4.260000 	 0.000000 
6 	 1 	1.229756 	 4.970000 	 0.000000 
7 	 1 	1.229756 	 6.390000 	 0.000000 
8 	 1 	0.000000 	 7.100000 	 0.000000 
9 	 1 	0.000000 	 8.520000 	 0.000000 
10 	 1 	1.229756 	 9.230000 	 0.000000 
11 	 1 	1.229756 	 10.650000 	 0.000000 
12 	 1 	0.000000 	 11.360000 	 0.000000 
13 	 1 	2.459512 	 0.000000 	 0.000000 
14 	 1 	3.689268 	 0.710000 	 0.000000 
15 	 1 	3.689268 	 2.130000 	 0.000000 
16 	 1 	2.459512 	 2.840000 	 0.000000 
17 	 1 	2.459512 	 4.260000 	 0.000000 
18 	 1 	3.689268 	 4.970000 	 0.000000 
19 	 1 	3.689268 	 6.390000 	 0.000000 
20 	 1 	2.459512 	 7.100000 	 0.000000 
21 	 1 	2.459512 	 8.520000 	 0.000000 
22 	 1 	3.689268 	 9.230000 	 0.000000 
23 	 1 	3.689268 	 10.650000 	 0.000000 
24 	 1 	2.459512 	 11.360000 	 0.000000 
25 	 1 	4.919024 	 0.000000 	 0.000000 
26 	 1 	6.148780 	 0.710000 	 0.000000 
27 	 1 	6.148780 	 2.130000 	 0.000000 
28 	 1 	4.919024 	 2.840000 	 0.000000 
29 	 1 	4.919024 	 4.260000 	 0.000000 
30 	 1 	6.148780 	 4.970000 	 0.000000 
31 	 1 	6.148780 	 6.390000 	 0.000000 
32 	 1 	4.919024 	 7.100000 	 0.000000 
33 	 1 	4.919024 	 8.520000 	 0.000000 
34 	 1 	6.148780 	 9.230000 	 0.000000 
35 	 1 	6.148780 	 10.650000 	 0.000000 
36 	 1 	4.919024 	 11.360000 	 0.000000 
37 	 1 	7.378536 	 0.000000 	 0.000000 
38 	 1 	8.608293 	 0.710000 	 0.000000 
39 	 1 	8.608293 	 2.130000 	 0.000000 
40 	 1 	7.378536 	 2.840000 	 0.000000 
41 	 1 	7.378536 	 4.260000 	 0.000000 
42 	 1 	8.608293 	 4.970000 	 0.000000 
43 	 1 	8.608293 	 6.390000 	 0.000000 
44 	 1 	7.378536 	 7.100000 	 0.000000 
45 	 1 	7.378536 	 8.520000 	 0.000000 
46 	 1 	8.608293 	 9.230000 	 0.000000 
47 	 1 	8.608293 	 10.650000 	 0.000000 
48 	 1 	7.378536 	 11.360000 	 0.000000 
49 	 1 	9.838049 	 0.000000 	 0.000000 
50 	 1 	11.067805 	 0.710000 	 0.000000 
51 	 1 	11.067805 	 2.130000 	 0.000000 
52 	 1 	9.838049 	 2.840000 	 0.000000 
53 	 1 	9.838049 	 4.260000 	 0.000000 
54 	 1 	11.067805 	 4.970000 	 0.000000 
55 	 1 	11.067805 	 6.390000 	 0.000000 
56 	 1 	9.838049 	 7.100000 	 0.000000 
57 	 1 	9.838049 	 8.520000 	 0.000000 
58 	 1 	11.067805 	 9.230000 	 0.000000 
59 	 1 	11.067805 	 10.650000 	 0.000000 
60 	 1 	9.838049 	 11.360000 	 0.000000 
61 	 1 	12.297561 	 0.000000 	 0.000000 
62 	 1 	13.527317 	 0.710000 	 0.000000 
63 	 1 	13.527317 	 2.130000 	 0.000000 
64 	 1 	12.297561 	 2.840000 	 0.000000 
65 	 1 	12.297561 	 4.260000 	 0.000000 
66 	 1 	13.527317 	 4.970000 	 0.000000 
67 	 1 	13.527317 	 6.390000 	 0.000000 
68 	 1 	12.297561 	 7.100000 	 0.000000 
69 	 1 	12.297561 	 8.520000 	 0.000000 
70 	 1 	13.527317 	 9.230000 	 0.000000 
71 	 1 	13.527317 	 10.650000 	 0.000000 
72 	 1 	12.297561 	 11.360000 	 0.000000 
73 	 1 	14.757073 	 0.000000 	 0.000000 
74 	 1 	15.986829 	 0.710000 	 0.000000 
75 	 1 	15.986829 	 2.130000 	 0.000000 
76 	 1 	14.757073 	 2.840000 	 0.000000 
77 	 1 	14.757073 	 4.260000 	 0.000000 
78 	 1 	15.986829 	 4.970000 	 0.000000 
79 	 1 	15.986829 	 6.390000 	 0.000000 
80 	 1 	14.757073 	 7.100000 	 0.000000 
81 	 1 	14.757073 	 8.520000 	 0.000000 
82 	 1 	15.986829 	 9.230000 	 0.000000 
83 	 1 	15.986829 	 10.650000 	 0.000000 
84 	 1 	14.757073 	 11.360000 	 0.000000 
85 	 1 	17.216585 	 0.000000 	 0.000000 
86 	 1 	18.446341 	 0.710000 	 0.000000 
87 	 1 	18.446341 	 2.130000 	 0.000000 
88 	 1 	17.216585 	 2.840000 	 0.000000 
89 	 1 	17.216585 	 4.260000 	 0.000000 
90 	 1 	18.446341 	 4.970000 	 0.000000 
91 	 1 	18.446341 	 6.390000 	 0.000000 
92 	 1 	17.216585 	 7.100000 	 0.000000 
93 	 1 	17.216585 	 8.520000 	 0.000000 
94 	 1 	18.446341 	 9.230000 	 0.000000 
95 	 1 	18.446341 	 10.650000 	 0.000000 
96 	 1 	17.216585 	 11.360000 	 0.000000 
97 	 1 	19.676097 	 0.000000 	 0.000000 
98 	 1 	20.905853 	 0.710000 	 0.000000 
99 	 1 	20.905853 	 2.130000 	 0.000000 
100 	 1 	19.676097 	 2.840000 	 0.000000 
101 	 1 	19.676097 	 4.260000 	 0.000000 
102 	 1 	20.905853 	 4.970000 	 0.000000 
103 	 1 	20.905853 	 6.390000 	 0.000000 
104 	 1 	19.676097 	 7.100000 	 0.000000 
105 	 1 	19.676097 	 8.520000 	 0.000000 
106 	 1 	20.905853 	 9.230000 	 0.000000 
107 	 1 	20.905853 	 10.650000 	 0.000000 
108 	 1 	19.676097 	 11.360000 	 0.000000 
109 	 1 	22.135609 	 0.000000 	 0.000000 
110 	 1 	23.365365 	 0.710000 	 0.000000 
111 	 1 	23.365365 	 2.130000 	 0.000000 
112 	 1 	22.135609 	 2.840000 	 0.000000 
113 	 1 	22.135609 	 4.260000 	 0.000000 
114 	 1 	23.365365 	 4.970000 	 0.000000 
115 	 1 	23.365365 	 6.390000 	 0.000000 
116 	 1 	22.135609 	 7.100000 	 0.000000 
117 	 1 	22.135609 	 8.520000 	 0.000000 
118 	 1 	23.365365 	 9.230000 	 0.000000 
119 	 1 	23.365365 	 10.650000 	 0.000000 
120 	 1 	22.135609 	 11.360000 	 0.000000 
121 	 1 	24.595121 	 0.000000 	 0.000000 
122 	 1 	25.824878 	 0.710000 	 0.000000 
123 	 1 	25.824878 	 2.130000 	 0.000000 
124 	 1 	24.595121 	 2.840000 	 0.000000 
125 	 1 	24.595121 	 4.260000 	 0.000000 
126 	 1 	25.824878 	 4.970000 	 0.000000 
127 	 1 	25.824878 	 6.390000 	 0.000000 
128 	 1 	24.595121 	 7.100000 	 0.000000 
129 	 1 	24.595121 	 8.520000 	 0.000000 
130 	 1 	25.824878 	 9.230000 	 0.000000 
131 	 1 	25.824878 	 10.650000 	 0.000000 
132 	 1 	24.595121 	 11.360000 	 0.000000 
133 	 1 	27.054634 	 0.000000 	 0.000000 
134 	 1 	28.284390 	 0.710000 	 0.000000 
135 	 1 	28.284390 	 2.130000 	 0.000000 
136 	 1 	27.054634 	 2.840000 	 0.000000 
137 	 1 	27.054634 	 4.260000 	 0.000000 
138 	 1 	28.284390 	 4.970000 	 0.000000 
139 	 1 	28.284390 	 6.390000 	 0.000000 
140 	 1 	27.054634 	 7.100000 	 0.000000 
141 	 1 	27.054634 	 8.520000 	 0.000000 
142 	 1 	28.284390 	 9.230000 	 0.000000 
143 	 1 	28.284390 	 10.650000 	 0.000000 
144 	 1 	27.054634 	 11.360000 	 0.000000 
145 	 1 	29.514146 	 0.000000 	 0.000000 
146 	 1 	30.743902 	 0.710000 	 0.000000 
147 	 1 	30.743902 	 2.130000 	 0.000000 
148 	 1 	29.514146 	 2.840000 	 0.000000 
149 	 1 	29.514146 	 4.260000 	 0.000000 
150 	 1 	30.743902 	 4.970000 	 0.000000 
151 	 1 	30.743902 	 6.390000 	 0.000000 
152 	 1 	29.514146 	 7.100000 	 0.000000 
153 	 1 	29.514146 	 8.520000 	 0.000000 
154 	 1 	30.743902 	 9.230000 	 0.000000 
155 	 1 	30.743902 	 10.650000 	 0.000000 
156 	 1 	29.514146 	 11.360000 	 0.000000 
157 	 1 	31.973658 	 0.000000 	 0.000000 
158 	 1 	33.203414 	 0.710000 	 0.000000 
159 	 1 	33.203414 	 2.130000 	 0.000000 
160 	 1 	31.973658 	 2.840000 	 0.000000 
161 	 1 	31.973658 	 4.260000 	 0.000000 
162 	 1 	33.203414 	 4.970000 	 0.000000 
163 	 1 	33.203414 	 6.390000 	 0.000000 
164 	 1 	31.973658 	 7.100000 	 0.000000 
165 	 1 	31.973658 	 8.520000 	 0.000000 
166 	 1 	33.203414 	 9.230000 	 0.000000 
167 	 1 	33.203414 	 10.650000 	 0.000000 
168 	 1 	31.973658 	 11.360000 	 0.000000 
169 	 1 	34.433170 	 0.000000 	 0.000000 
170 	 1 	35.662926 	 0.710000 	 0.000000 
171 	 1 	35.662926 	 2.130000 	 0.000000 
172 	 1 	34.433170 	 2.840000 	 0.000000 
173 	 1 	34.433170 	 4.260000 	 0.000000 
174 	 1 	35.662926 	 4.970000 	 0.000000 
175 	 1 	35.662926 	 6.390000 	 0.000000 
176 	 1 	34.433170 	 7.100000 	 0.000000 
177 	 1 	34.433170 	 8.520000 	 0.000000 
178 	 1 	35.662926 	 9.230000 	 0.000000 
179 	 1 	35.662926 	 10.650000 	 0.000000 
180 	 1 	34.433170 	 11.360000 	 0.000000 
181 	 1 	36.892682 	 0.000000 	 0.000000 
182 	 1 	38.122438 	 0.710000 	 0.000000 
183 	 1 	38.122438 	 2.130000 	 0.000000 
184 	 1 	36.892682 	 2.840000 	 0.000000 
185 	 1 	36.892682 	 4.260000 	 0.000000 
186 	 1 	38.122438 	 4.970000 	 0.000000 
187 	 1 	38.122438 	 6.390000 	 0.000000 
188 	 1 	36.892682 	 7.100000 	 0.000000 
189 	 1 	36.892682 	 8.520000 	 0.000000 
190 	 1 	38.122438 	 9.230000 	 0.000000 
191 	 1 	38.122438 	 10.650000 	 0.000000 
192 	 1 	36.892682 	 11.360000 	 0.000000 
193 	 1 	39.352194 	 0.000000 	 0.000000 
194 	 1 	40.581950 	 0.710000 	 0.000000 
195 	 1 	40.581950 	 2.130000 	 0.000000 
196 	 1 	39.352194 	 2.840000 	 0.000000 
197 	 1 	39.352194 	 4.260000 	 0.000000 
198 	 1 	40.581950 	 4.970000 	 0.000000 
199 	 1 	40.581950 	 6.390000 	 0.000000 
200 	 1 	39.352194 	 7.100000 	 0.000000 
201 	 1 	39.352194 	 8.520000 	 0.000000 
202 	 1 	40.581950 	 9.230000 	 0.000000 
203 	 1 	40.581950 	 10.650000 	 0.000000 
204 	 1 	39.352194 	 11.360000 	 0.000000 
205 	 1 	41.811706 	 0.000000 	 0.000000 
206 	 1 	43.041463 	 0.710000 	 0.000000 
207 	 1 	43.041463 	 2.130000 	 0.000000 
208 	 1 	41.811706 	 2.840000 	 0.000000 
209 	 1 	41.811706 	 4.260000 	 0.000000 
210 	 1 	43.041463 	 4.970000 	 0.000000 
211 	 1 	43.041463 	 6.390000 	 0.000000 
212 	 1 	41.811706 	 7.100000 	 0.000000 
213 	 1 	41.811706 	 8.520000 	 0.000000 
214 	 1 	43.041463 	 9.230000 	 0.000000 
215 	 1 	43.041463 	 10.650000 	 0.000000 
216 	 1 	41.811706 	 11.360000 	 0.000000 
217 	 1 	44.271219 	 0.000000 	 0.000000 
218 	 1 	45.500975 	 0.710000 	 0.000000 
219 	 1 	45.500975 	 2.130000 	 0.000000 
220 	 1 	44.271219 	 2.840000 	 0.000000 
221 	 1 	44.271219 	 4.260000 	 0.000000 
222 	 1 	45.500975 	 4.970000 	 0.000000 
223 	 1 	45.500975 	 6.390000 	 0.000000 
224 	 1 	44.271219 	 7.100000 	 0.000000 
225 	 1 	44.271219 	 8.520000 	 0.000000 
226 	 1 	45.500975 	 9.230000 	 0.000000 
227 	 1 	45.500975 	 10.650000 	 0.000000 
228 	 1 	44.271219 	 11.360000 	 0.000000 
229 	 1 	46.730731 	 0.000000 	 0.000000 
230 	 1 	47.960487 	 0.710000 	 0.000000 
231 	 1 	47.960487 	 2.130000 	 0.000000 
232 	 1 	46.730731 	 2.840000 	 0.000000 
233 	 1 	46.730731 	 4.260000 	 0.000000 
234 	 1 	47.960487 	 4.970000 	 0.000000 
235 	 1 	47.960487 	 6.390000 	 0.000000 
236 	 1 	46.730731 	 7.100000 	 0.000000 
237 	 1 	46.730731 	 8.520000 	 0.000000 
238 	 1 	47.960487 	 9.230000 	 0.000000 
239 	 1 	47.960487 	 10.650000 	 0.000000 
240 	 1 	46.730731 	 11.360000 	 0.000000 
241 	 1 	49.190243 	 0.000000 	 0.000000 
242 	 1 	50.419999 	 0.710000 	 0.000000 
243 	 1 	50.419999 	 2.130000 	 0.000000 
244 	 1 	49.190243 	 2.840000 	 0.000000 
245 	 1 	49.190243 	 4.260000 	 0.000000 
246 	 1 	50.419999 	 4.970000 	 0.000000 
247 	 1 	50.419999 	 6.390000 	 0.000000 
248 	 1 	49.190243 	 7.100000 	 0.000000 
249 	 1 	49.190243 	 8.520000 	 0.000000 
250 	 1 	50.419999 	 9.230000 	 0.000000 
251 	 1 	50.419999 	 10.650000 	 0.000000 
252 	 1 	49.190243 	 11.360000 	 0.000000 
253 	 1 	51.649755 	 0.000000 	 0.000000 
254 	 1 	52.879511 	 0.710000 	 0.000000 
255 	 1 	52.879511 	 2.130000 	 0.000000 
256 	 1 	51.649755 	 2.840000 	 0.000000 
257 	 1 	51.649755 	 4.260000 	 0.000000 
258 	 1 	52.879511 	 4.970000 	 0.000000 
259 	 1 	52.879511 	 6.390000 	 0.000000 
260 	 1 	51.649755 	 7.100000 	 0.000000 
261 	 1 	51.649755 	 8.520000 	 0.000000 
262 	 1 	52.879511 	 9.230000 	 0.000000 
263 	 1 	52.879511 	 10.650000 	 0.000000 
264 	 1 	51.649755 	 11.360000 	 0.000000 
265 	 1 	54.109267 	 0.000000 	 0.000000 
266 	 1 	55.339023 	 0.710000 	 0.000000 
267 	 1 	55.339023 	 2.130000 	 0.000000 
268 	 1 	54.109267 	 2.840000 	 0.000000 
269 	 1 	54.109267 	 4.260000 	 0.000000 
270 	 1 	55.339023 	 4.970000 	 0.000000 
271 	 1 	55.339023 	 6.390000 	 0.000000 
272 	 1 	54.109267 	 7.100000 	 0.000000 
273 	 1 	54.109267 	 8.520000 	 0.000000 
274 	 1 	55.339023 	 9.230000 	 0.000000 
275 	 1 	55.339023 	 10.650000 	 0.000000 
276 	 1 	54.109267 	 11.360000 	 0.000000 
277 	 1 	56.568779 	 0.000000 	 0.000000 
278 	 1 	57.798535 	 0.710000 	 0.000000 
279 	 1 	57.798535 	 2.130000 	 0.000000 
280 	 1 	56.568779 	 2.840000 	 0.000000 
281 	 1 	56.568779 	 4.260000 	 0.000000 
282 	 1 	57.798535 	 4.970000 	 0.000000 
283 	 1 	57.798535 	 6.390000 	 0.000000 
284 	 1 	56.568779 	 7.100000 	 0.000000 
285 	 1 	56.568779 	 8.520000 	 0.000000 
286 	 1 	57.798535 	 9.230000 	 0.000000 
287 	 1 	57.798535 	 10.650000 	 0.000000 
288 	 1 	56.568779 	 11.360000 	 0.000000 
289 	 1 	59.028292 	 0.000000 	 0.000000 
290 	 1 	60.258048 	 0.710000 	 0.000000 
291 	 1 	60.258048 	 2.130000 	 0.000000 
292 	 1 	59.028292 	 2.840000 	 0.000000 
293 	 1 	59.028292 	 4.260000 	 0.000000 
294 	 1 	60.258048 	 4.970000 	 0.000000 
295 	 1 	60.258048 	 6.390000 	 0.000000 
296 	 1 	59.028292 	 7.100000 	 0.000000 
297 	 1 	59.028292 	 8.520000 	 0.000000 
298 	 1 	60.258048 	 9.230000 	 0.000000 
299 	 1 	60.258048 	 10.650000 	 0.000000 
300 	 1 	59.028292 	 11.360000 	 0.000000 
301 	 1 	61.487804 	 0.000000 	 0.000000 
302 	 1 	62.717560 	 0.710000 	 0.000000 
303 	 1 	62.717560 	 2.130000 	 0.000000 
304 	 1 	61.487804 	 2.840000 	 0.000000 
305 	 1 	61.487804 	 4.260000 	 0.000000 
306 	 1 	62.717560 	 4.970000 	 0.000000 
307 	 1 	62.717560 	 6.390000 	 0.000000 
308 	 1 	61.487804 	 7.100000 	 0.000000 
309 	 1 	61.487804 	 8.520000 	 0.000000 
310 	 1 	62.717560 	 9.230000 	 0.000000 
311 	 1 	62.717560 	 10.650000 	 0.000000 
312 	 1 	61.487804 	 11.360000 	 0.000000 
313 	 1 	63.947316 	 0.000000 	 0.000000 
314 	 1 	65.177072 	 0.710000 	 0.000000 
315 	 1 	65.177072 	 2.130000 	 0.000000 
316 	 1 	63.947316 	 2.840000 	 0.000000 
317 	 1 	63.947316 	 4.260000 	 0.000000 
318 	 1 	65.177072 	 4.970000 	 0.000000 
319 	 1 	65.177072 	 6.390000 	 0.000000 
320 	 1 	63.947316 	 7.100000 	 0.000000 
321 	 1 	63.947316 	 8.520000 	 0.000000 
322 	 1 	65.177072 	 9.230000 	 0.000000 
323 	 1 	65.177072 	 10.650000 	 0.000000 
324 	 1 	63.947316 	 11.360000 	 0.000000 
325 	 1 	66.406828 	 0.000000 	 0.000000 
326 	 1 	67.636584 	 0.710000 	 0.000000 
327 	 1 	67.636584 	 2.130000 	 0.000000 
328 	 1 	66.406828 	 2.840000 	 0.000000 
329 	 1 	66.406828 	 4.260000 	 0.000000 
330 	 1 	67.636584 	 4.970000 	 0.000000 
331 	 1 	67.636584 	 6.390000 	 0.000000 
332 	 1 	66.406828 	 7.100000 	 0.000000 
333 	 1 	66.406828 	 8.520000 	 0.000000 
334 	 1 	67.636584 	 9.230000 	 0.000000 
335 	 1 	67.636584 	 10.650000 	 0.000000 
336 	 1 	66.406828 	 11.360000 	 0.000000 
337 	 1 	68.866340 	 0.000000 	 0.000000 
338 	 1 	70.096096 	 0.710000 	 0.000000 
339 	 1 	70.096096 	 2.130000 	 0.000000 
340 	 1 	68.866340 	 2.840000 	 0.000000 
341 	 1 	68.866340 	 4.260000 	 0.000000 
342 	 1 	70.096096 	 4.970000 	 0.000000 
343 	 1 	70.096096 	 6.390000 	 0.000000 
344 	 1 	68.866340 	 7.100000 	 0.000000 
345 	 1 	68.866340 	 8.520000 	 0.000000 
346 	 1 	70.096096 	 9.230000 	 0.000000 
347 	 1 	70.096096 	 10.650000 	 0.000000 
348 	 1 	68.866340 	 11.360000 	 0.000000 
349 	 1 	71.325852 	 0.000000 	 0.000000 
350 	 1 	72.555608 	 0.710000 	 0.000000 
351 	 1 	72.555608 	 2.130000 	 0.000000 
352 	 1 	71.325852 	 2.840000 	 0.000000 
353 	 1 	71.325852 	 4.260000 	 0.000000 
354 	 1 	72.555608 	 4.970000 	 0.000000 
355 	 1 	72.555608 	 6.390000 	 0.000000 
356 	 1 	71.325852 	 7.100000 	 0.000000 
357 	 1 	71.325852 	 8.520000 	 0.000000 
358 	 1 	72.555608 	 9.230000 	 0.000000 
359 	 1 	72.555608 	 10.650000 	 0.000000 
360 	 1 	71.325852 	 11.360000 	 0.000000 
361 	 1 	73.785364 	 0.000000 	 0.000000 
362 	 1 	75.015120 	 0.710000 	 0.000000 
363 	 1 	75.015120 	 2.130000 	 0.000000 
364 	 1 	73.785364 	 2.840000 	 0.000000 
365 	 1 	73.785364 	 4.260000 	 0.000000 
366 	 1 	75.015120 	 4.970000 	 0.000000 
367 	 1 	75.015120 	 6.390000 	 0.000000 
368 	 1 	73.785364 	 7.100000 	 0.000000 
369 	 1 	73.785364 	 8.520000 	 0.000000 
370 	 1 	75.015120 	 9.230000 	 0.000000 
371 	 1 	75.015120 	 10.650000 	 0.000000 
372 	 1 	73.785364 	 11.360000 	 0.000000 
373 	 1 	76.244877 	 0.000000 	 0.000000 
374 	 1 	77.474633 	 0.710000 	 0.000000 
375 	 1 	77.474633 	 2.130000 	 0.000000 
376 	 1 	76.244877 	 2.840000 	 0.000000 
377 	 1 	76.244877 	 4.260000 	 0.000000 
378 	 1 	77.474633 	 4.970000 	 0.000000 
379 	 1 	77.474633 	 6.390000 	 0.000000 
380 	 1 	76.244877 	 7.100000 	 0.000000 
381 	 1 	76.244877 	 8.520000 	 0.000000 
382 	 1 	77.474633 	 9.230000 	 0.000000 
383 	 1 	77.474633 	 10.650000 	 0.000000 
384 	 1 	76.244877 	 11.360000 	 0.000000 
385 	 1 	78.704389 	 0.000000 	 0.000000 
386 	 1 	79.934145 	 0.710000 	 0.000000 
387 	 1 	79.934145 	 2.130000 	 0.000000 
388 	 1 	78.704389 	 2.840000 	 0.000000 
389 	 1 	78.704389 	 4.260000 	 0.000000 
390 	 1 	79.934145 	 4.970000 	 0.000000 
391 	 1 	79.934145 	 6.390000 	 0.000000 
392 	 1 	78.704389 	 7.100000 	 0.000000 
393 	 1 	78.704389 	 8.520000 	 0.000000 
394 	 1 	79.934145 	 9.230000 	 0.000000 
395 	 1 	79.934145 	 10.650000 	 0.000000 
396 	 1 	78.704389 	 11.360000 	 0.000000 
397 	 1 	81.163901 	 0.000000 	 0.000000 
398 	 1 	82.393657 	 0.710000 	 0.000000 
399 	 1 	82.393657 	 2.130000 	 0.000000 
400 	 1 	81.163901 	 2.840000 	 0.000000 
401 	 1 	81.163901 	 4.260000 	 0.000000 
402 	 1 	82.393657 	 4.970000 	 0.000000 
403 	 1 	82.393657 	 6.390000 	 0.000000 
404 	 1 	81.163901 	 7.100000 	 0.000000 
405 	 1 	81.163901 	 8.520000 	 0.000000 
406 	 1 	82.393657 	 9.230000 	 0.000000 
407 	 1 	82.393657 	 10.650000 	 0.000000 
408 	 1 	81.163901 	 11.360000 	 0.000000 
409 	 1 	83.623413 	 0.000000 	 0.000000 
410 	 1 	84.853169 	 0.710000 	 0.000000 
411 	 1 	84.853169 	 2.130000 	 0.000000 
412 	 1 	83.623413 	 2.840000 	 0.000000 
413 	 1 	83.623413 	 4.260000 	 0.000000 
414 	 1 	84.853169 	 4.970000 	 0.000000 
415 	 1 	84.853169 	 6.390000 	 0.000000 
416 	 1 	83.623413 	 7.100000 	 0.000000 
417 	 1 	83.623413 	 8.520000 	 0.000000 
418 	 1 	84.853169 	 9.230000 	 0.000000 
419 	 1 	84.853169 	 10.650000 	 0.000000 
420 	 1 	83.623413 	 11.360000 	 0.000000 
421 	 1 	86.082925 	 0.000000 	 0.000000 
422 	 1 	87.312681 	 0.710000 	 0.000000 
423 	 1 	87.312681 	 2.130000 	 0.000000 
424 	 1 	86.082925 	 2.840000 	 0.000000 
425 	 1 	86.082925 	 4.260000 	 0.000000 
426 	 1 	87.312681 	 4.970000 	 0.000000 
427 	 1 	87.312681 	 6.390000 	 0.000000 
428 	 1 	86.082925 	 7.100000 	 0.000000 
429 	 1 	86.082925 	 8.520000 	 0.000000 
430 	 1 	87.312681 	 9.230000 	 0.000000 
431 	 1 	87.312681 	 10.650000 	 0.000000 
432 	 1 	86.082925 	 11.360000 	 0.000000 
433 	 1 	88.542437 	 0.000000 	 0.000000 
434 	 1 	89.772193 	 0.710000 	 0.000000 
435 	 1 	89.772193 	 2.130000 	 0.000000 
436 	 1 	88.542437 	 2.840000 	 0.000000 
437 	 1 	88.542437 	 4.260000 	 0.000000 
438 	 1 	89.772193 	 4.970000 	 0.000000 
439 	 1 	89.772193 	 6.390000 	 0.000000 
440 	 1 	88.542437 	 7.100000 	 0.000000 
441 	 1 	88.542437 	 8.520000 	 0.000000 
442 	 1 	89.772193 	 9.230000 	 0.000000 
443 	 1 	89.772193 	 10.650000 	 0.000000 
444 	 1 	88.542437 	 11.360000 	 0.000000 
445 	 1 	91.001949 	 0.000000 	 0.000000 
446 	 1 	92.231706 	 0.710000 	 0.000000 
447 	 1 	92.231706 	 2.130000 	 0.000000 
448 	 1 	91.001949 	 2.840000 	 0.000000 
449 	 1 	91.001949 	 4.260000 	 0.000000 
450 	 1 	92.231706 	 4.970000 	 0.000000 
451 	 1 	92.231706 	 6.390000 	 0.000000 
452 	 1 	91.001949 	 7.100000 	 0.000000 
453 	 1 	91.001949 	 8.520000 	 0.000000 
454 	 1 	92.231706 	 9.230000 	 0.000000 
455 	 1 	92.231706 	 10.650000 	 0.000000 
456 	 1 	91.001949 	 11.360000 	 0.000000 
457 	 1 	93.461462 	 0.000000 	 0.000000 
458 	 1 	94.691218 	 0.710000 	 0.000000 
459 	 1 	94.691218 	 2.130000 	 0.000000 
460 	 1 	93.461462 	 2.840000 	 0.000000 
461 	 1 	93.461462 	 4.260000 	 0.000000 
462 	 1 	94.691218 	 4.970000 	 0.000000 
463 	 1 	94.691218 	 6.390000 	 0.000000 
464 	 1 	93.461462 	 7.100000 	 0.000000 
465 	 1 	93.461462 	 8.520000 	 0.000000 
466 	 1 	94.691218 	 9.230000 	 0.000000 
467 	 1 	94.691218 	 10.650000 	 0.000000 
468 	 1 	93.461462 	 11.360000 	 0.000000 
469 	 1 	95.920974 	 0.000000 	 0.000000 
470 	 1 	97.150730 	 0.710000 	 0.000000 
471 	 1 	97.150730 	 2.130000 	 0.000000 
472 	 1 	95.920974 	 2.840000 	 0.000000 
473 	 1 	95.920974 	 4.260000 	 0.000000 
474 	 1 	97.150730 	 4.970000 	 0.000000 
475 	 1 	97.150730 	 6.390000 	 0.000000 
476 	 1 	95.920974 	 7.100000 	 0.000000 
477 	 1 	95.920974 	 8.520000 	 0.000000 
478 	 1 	97.150730 	 9.230000 	 0.000000 
479 	 1 	97.150730 	 10.650000 	 0.000000 
480 	 1 	95.920974 	 11.360000 	 0.000000 
481 	 1 	98.380486 	 0.000000 	 0.000000 
482 	 1 	99.610242 	 0.710000 	 0.000000 
483 	 1 	99.610242 	 2.130000 	 0.000000 
484 	 1 	98.380486 	 2.840000 	 0.000000 
485 	 1 	98.380486 	 4.260000 	 0.000000 
486 	 1 	99.610242 	 4.970000 	 0.000000 
487 	 1 	99.610242 	 6.390000 	 0.000000 
488 	 1 	98.380486 	 7.100000 	 0.000000 
489 	 1 	98.380486 	 8.520000 	 0.000000 
490 	 1 	99.610242 	 9.230000 	 0.000000 
491 	 1 	99.610242 	 10.650000 	 0.000000 
492 	 1 	98.380486 	 11.360000 	 0.000000 
493 	 1 	100.839998 	 0.000000 	 0.000000 
494 	 1 	102.069754 	 0.710000 	 0.000000 
495 	 1 	102.069754 	 2.130000 	 0.000000 
496 	 1 	100.839998 	 2.840000 	 0.000000 
497 	 1 	100.839998 	 4.260000 	 0.000000 
498 	 1 	102.069754 	 4.970000 	 0.000000 
499 	 1 	102.069754 	 6.390000 	 0.000000 
500 	 1 	100.839998 	 7.100000 	 0.000000 
501 	 1 	100.839998 	 8.520000 	 0.000000 
502 	 1 	102.069754 	 9.230000 	 0.000000 
503 	 1 	102.069754 	 10.650000 	 0.000000 
504 	 1 	100.839998 	 11.360000 	 0.000000 
505 	 1 	103.299510 	 0.000000 	 0.000000 
506 	 1 	104.529266 	 0.710000 	 0.000000 
507 	 1 	104.529266 	 2.130000 	 0.000000 
508 	 1 	103.299510 	 2.840000 	 0.000000 
509 	 1 	103.299510 	 4.260000 	 0.000000 
510 	 1 	104.529266 	 4.970000 	 0.000000 
511 	 1 	104.529266 	 6.390000 	 0.000000 
512 	 1 	103.299510 	 7.100000 	 0.000000 
513 	 1 	103.299510 	 8.520000 	 0.000000 
514 	 1 	104.529266 	 9.230000 	 0.000000 
515 	 1 	104.529266 	 10.650000 	 0.000000 
516 	 1 	103.299510 	 11.360000 	 0.000000 
517 	 1 	105.759022 	 0.000000 	 0.000000 
518 	 1 	106.988778 	 0.710000 	 0.000000 
519 	 1 	106.988778 	 2.130000 	 0.000000 
520 	 1 	105.759022 	 2.840000 	 0.000000 
521 	 1 	105.759022 	 4.260000 	 0.000000 
522 	 1 	106.988778 	 4.970000 	 0.000000 
523 	 1 	106.988778 	 6.390000 	 0.000000 
524 	 1 	105.759022 	 7.100000 	 0.000000 
525 	 1 	105.759022 	 8.520000 	 0.000000 
526 	 1 	106.988778 	 9.230000 	 0.000000 
527 	 1 	106.988778 	 10.650000 	 0.000000 
528 	 1 	105.759022 	 11.360000 	 0.000000 
529 	 1 	108.218534 	 0.000000 	 0.000000 
530 	 1 	109.448291 	 0.710000 	 0.000000 
531 	 1 	109.448291 	 2.130000 	 0.000000 
532 	 1 	108.218534 	 2.840000 	 0.000000 
533 	 1 	108.218534 	 4.260000 	 0.000000 
534 	 1 	109.448291 	 4.970000 	 0.000000 
535 	 1 	109.448291 	 6.390000 	 0.000000 
536 	 1 	108.218534 	 7.100000 	 0.000000 
537 	 1 	108.218534 	 8.520000 	 0.000000 
538 	 1 	109.448291 	 9.230000 	 0.000000 
539 	 1 	109.448291 	 10.650000 	 0.000000 
540 	 1 	108.218534 	 11.360000 	 0.000000 
541 	 1 	110.678047 	 0.000000 	 0.000000 
542 	 1 	111.907803 	 0.710000 	 0.000000 
543 	 1 	111.907803 	 2.130000 	 0.000000 
544 	 1 	110.678047 	 2.840000 	 0.000000 
545 	 1 	110.678047 	 4.260000 	 0.000000 
546 	 1 	111.907803 	 4.970000 	 0.000000 
547 	 1 	111.907803 	 6.390000 	 0.000000 
548 	 1 	110.678047 	 7.100000 	 0.000000 
549 	 1 	110.678047 	 8.520000 	 0.000000 
550 	 1 	111.907803 	 9.230000 	 0.000000 
551 	 1 	111.907803 	 10.650000 	 0.000000 
552 	 1 	110.678047 	 11.360000 	 0.000000 
553 	 1 	113.137559 	 0.000000 	 0.000000 
554 	 1 	114.367315 	 0.710000 	 0.000000 
555 	 1 	114.367315 	 2.130000 	 0.000000 
556 	 1 	113.137559 	 2.840000 	 0.000000 
557 	 1 	113.137559 	 4.260000 	 0.000000 
558 	 1 	114.367315 	 4.970000 	 0.000000 
559 	 1 	114.367315 	 6.390000 	 0.000000 
560 	 1 	113.137559 	 7.100000 	 0.000000 
561 	 1 	113.137559 	 8.520000 	 0.000000 
562 	 1 	114.367315 	 9.230000 	 0.000000 
563 	 1 	114.367315 	 10.650000 	 0.000000 
564 	 1 	113.137559 	 11.360000 	 0.000000 
565 	 1 	115.597071 	 0.000000 	 0.000000 
566 	 1 	116.826827 	 0.710000 	 0.000000 
567 	 1 	116.826827 	 2.130000 	 0.000000 
568 	 1 	115.597071 	 2.840000 	 0.000000 
569 	 1 	115.597071 	 4.260000 	 0.000000 
570 	 1 	116.826827 	 4.970000 	 0.000000 
571 	 1 	116.826827 	 6.390000 	 0.000000 
572 	 1 	115.597071 	 7.100000 	 0.000000 
573 	 1 	115.597071 	 8.520000 	 0.000000 
574 	 1 	116.826827 	 9.230000 	 0.000000 
575 	 1 	116.826827 	 10.650000 	 0.000000 
576 	 1 	115.597071 	 11.360000 	 0.000000 
577 	 1 	118.056583 	 0.000000 	 0.000000 
578 	 1 	119.286339 	 0.710000 	 0.000000 
579 	 1 	119.286339 	 2.130000 	 0.000000 
580 	 1 	118.056583 	 2.840000 	 0.000000 
581 	 1 	118.056583 	 4.260000 	 0.000000 
582 	 1 	119.286339 	 4.970000 	 0.000000 
583 	 1 	119.286339 	 6.390000 	 0.000000 
584 	 1 	118.056583 	 7.100000 	 0.000000 
585 	 1 	118.056583 	 8.520000 	 0.000000 
586 	 1 	119.286339 	 9.230000 	 0.000000 
587 	 1 	119.286339 	 10.650000 	 0.000000 
588 	 1 	118.056583 	 11.360000 	 0.000000 
589 	 1 	120.516095 	 0.000000 	 0.000000 
590 	 1 	121.745851 	 0.710000 	 0.000000 
591 	 1 	121.745851 	 2.130000 	 0.000000 
592 	 1 	120.516095 	 2.840000 	 0.000000 
593 	 1 	120.516095 	 4.260000 	 0.000000 
594 	 1 	121.745851 	 4.970000 	 0.000000 
595 	 1 	121.745851 	 6.390000 	 0.000000 
596 	 1 	120.516095 	 7.100000 	 0.000000 
597 	 1 	120.516095 	 8.520000 	 0.000000 
598 	 1 	121.745851 	 9.230000 	 0.000000 
599 	 1 	121.745851 	 10.650000 	 0.000000 
600 	 1 	120.516095 	 11.360000 	 0.000000 
601 	 1 	122.975607 	 0.000000 	 0.000000 
602 	 1 	124.205363 	 0.710000 	 0.000000 
603 	 1 	124.205363 	 2.130000 	 0.000000 
604 	 1 	122.975607 	 2.840000 	 0.000000 
605 	 1 	122.975607 	 4.260000 	 0.000000 
606 	 1 	124.205363 	 4.970000 	 0.000000 
607 	 1 	124.205363 	 6.390000 	 0.000000 
608 	 1 	122.975607 	 7.100000 	 0.000000 
609 	 1 	122.975607 	 8.520000 	 0.000000 
610 	 1 	124.205363 	 9.230000 	 0.000000 
611 	 1 	124.205363 	 10.650000 	 0.000000 
612 	 1 	122.975607 	 11.360000 	 0.000000 
613 	 1 	125.435119 	 0.000000 	 0.000000 
614 	 1 	126.664876 	 0.710000 	 0.000000 
615 	 1 	126.664876 	 2.130000 	 0.000000 
616 	 1 	125.435119 	 2.840000 	 0.000000 
617 	 1 	125.435119 	 4.260000 	 0.000000 
618 	 1 	126.664876 	 4.970000 	 0.000000 
619 	 1 	126.664876 	 6.390000 	 0.000000 
620 	 1 	125.435119 	 7.100000 	 0.000000 
621 	 1 	125.435119 	 8.520000 	 0.000000 
622 	 1 	126.664876 	 9.230000 	 0.000000 
623 	 1 	126.664876 	 10.650000 	 0.000000 
624 	 1 	125.435119 	 11.360000 	 0.000000 
625 	 1 	127.894632 	 0.000000 	 0.000000 
626 	 1 	129.124388 	 0.710000 	 0.000000 
627 	 1 	129.124388 	 2.130000 	 0.000000 
628 	 1 	127.894632 	 2.840000 	 0.000000 
629 	 1 	127.894632 	 4.260000 	 0.000000 
630 	 1 	129.124388 	 4.970000 	 0.000000 
631 	 1 	129.124388 	 6.390000 	 0.000000 
632 	 1 	127.894632 	 7.100000 	 0.000000 
633 	 1 	127.894632 	 8.520000 	 0.000000 
634 	 1 	129.124388 	 9.230000 	 0.000000 
635 	 1 	129.124388 	 10.650000 	 0.000000 
636 	 1 	127.894632 	 11.360000 	 0.000000 
637 	 1 	130.354144 	 0.000000 	 0.000000 
638 	 1 	131.583900 	 0.710000 	 0.000000 
639 	 1 	131.583900 	 2.130000 	 0.000000 
640 	 1 	130.354144 	 2.840000 	 0.000000 
641 	 1 	130.354144 	 4.260000 	 0.000000 
642 	 1 	131.583900 	 4.970000 	 0.000000 
643 	 1 	131.583900 	 6.390000 	 0.000000 
644 	 1 	130.354144 	 7.100000 	 0.000000 
645 	 1 	130.354144 	 8.520000 	 0.000000 
646 	 1 	131.583900 	 9.230000 	 0.000000 
647 	 1 	131.583900 	 10.650000 	 0.000000 
648 	 1 	130.354144 	 11.360000 	 0.000000 
649 	 1 	132.813656 	 0.000000 	 0.000000 
650 	 1 	134.043412 	 0.710000 	 0.000000 
651 	 1 	134.043412 	 2.130000 	 0.000000 
652 	 1 	132.813656 	 2.840000 	 0.000000 
653 	 1 	132.813656 	 4.260000 	 0.000000 
654 	 1 	134.043412 	 4.970000 	 0.000000 
655 	 1 	134.043412 	 6.390000 	 0.000000 
656 	 1 	132.813656 	 7.100000 	 0.000000 
657 	 1 	132.813656 	 8.520000 	 0.000000 
658 	 1 	134.043412 	 9.230000 	 0.000000 
659 	 1 	134.043412 	 10.650000 	 0.000000 
660 	 1 	132.813656 	 11.360000 	 0.000000 
661 	 1 	135.273168 	 0.000000 	 0.000000 
662 	 1 	136.502924 	 0.710000 	 0.000000 
663 	 1 	136.502924 	 2.130000 	 0.000000 
664 	 1 	135.273168 	 2.840000 	 0.000000 
665 	 1 	135.273168 	 4.260000 	 0.000000 
666 	 1 	136.502924 	 4.970000 	 0.000000 
667 	 1 	136.502924 	 6.390000 	 0.000000 
668 	 1 	135.273168 	 7.100000 	 0.000000 
669 	 1 	135.273168 	 8.520000 	 0.000000 
670 	 1 	136.502924 	 9.230000 	 0.000000 
671 	 1 	136.502924 	 10.650000 	 0.000000 
672 	 1 	135.273168 	 11.360000 	 0.000000 
673 	 1 	137.732680 	 0.000000 	 0.000000 
674 	 1 	138.962436 	 0.710000 	 0.000000 
675 	 1 	138.962436 	 2.130000 	 0.000000 
676 	 1 	137.732680 	 2.840000 	 0.000000 
677 	 1 	137.732680 	 4.260000 	 0.000000 
678 	 1 	138.962436 	 4.970000 	 0.000000 
679 	 1 	138.962436 	 6.390000 	 0.000000 
680 	 1 	137.732680 	 7.100000 	 0.000000 
681 	 1 	137.732680 	 8.520000 	 0.000000 
682 	 1 	138.962436 	 9.230000 	 0.000000 
683 	 1 	138.962436 	 10.650000 	 0.000000 
684 	 1 	137.732680 	 11.360000 	 0.000000 
685 	 1 	140.192192 	 0.000000 	 0.000000 
686 	 1 	141.421948 	 0.710000 	 0.000000 
687 	 1 	141.421948 	 2.130000 	 0.000000 
688 	 1 	140.192192 	 2.840000 	 0.000000 
689 	 1 	140.192192 	 4.260000 	 0.000000 
690 	 1 	141.421948 	 4.970000 	 0.000000 
691 	 1 	141.421948 	 6.390000 	 0.000000 
692 	 1 	140.192192 	 7.100000 	 0.000000 
693 	 1 	140.192192 	 8.520000 	 0.000000 
694 	 1 	141.421948 	 9.230000 	 0.000000 
695 	 1 	141.421948 	 10.650000 	 0.000000 
696 	 1 	140.192192 	 11.360000 	 0.000000 
697 	 1 	142.651705 	 0.000000 	 0.000000 
698 	 1 	143.881461 	 0.710000 	 0.000000 
699 	 1 	143.881461 	 2.130000 	 0.000000 
700 	 1 	142.651705 	 2.840000 	 0.000000 
701 	 1 	142.651705 	 4.260000 	 0.000000 
702 	 1 	143.881461 	 4.970000 	 0.000000 
703 	 1 	143.881461 	 6.390000 	 0.000000 
704 	 1 	142.651705 	 7.100000 	 0.000000 