
23496 atoms 
8 atom types 
0.000000 	 14.757073 	 xlo xhi
-5.000000 	 601.400000 	 ylo yhi
-5.000000 	 619.780000 	 zlo zhi

 Masses 

1 	 12.0107 
2 	 12.0107 
3 	 12.0107 
4 	 12.0107 
5 	 12.0107 
6 	 12.0107 
7 	 12.0107 
8 	 12.0107 

Atoms
 
1 	 1 	0.000000 	 0.000000 	 0.000000 
2 	 1 	1.229756 	 0.710000 	 0.000000 
3 	 1 	1.229756 	 2.130000 	 0.000000 
4 	 1 	0.000000 	 2.840000 	 0.000000 
5 	 1 	0.000000 	 4.260000 	 0.000000 
6 	 1 	1.229756 	 4.970000 	 0.000000 
7 	 1 	1.229756 	 6.390000 	 0.000000 
8 	 1 	0.000000 	 7.100000 	 0.000000 
9 	 1 	0.000000 	 8.520000 	 0.000000 
10 	 1 	1.229756 	 9.230000 	 0.000000 
11 	 1 	1.229756 	 10.650000 	 0.000000 
12 	 1 	0.000000 	 11.360000 	 0.000000 
13 	 1 	0.000000 	 12.780000 	 0.000000 
14 	 1 	1.229756 	 13.490000 	 0.000000 
15 	 1 	1.229756 	 14.910000 	 0.000000 
16 	 1 	0.000000 	 15.620000 	 0.000000 
17 	 1 	0.000000 	 17.040000 	 0.000000 
18 	 1 	1.229756 	 17.750000 	 0.000000 
19 	 1 	1.229756 	 19.170000 	 0.000000 
20 	 1 	0.000000 	 19.880000 	 0.000000 
21 	 1 	0.000000 	 21.300000 	 0.000000 
22 	 1 	1.229756 	 22.010000 	 0.000000 
23 	 1 	1.229756 	 23.430000 	 0.000000 
24 	 1 	0.000000 	 24.140000 	 0.000000 
25 	 1 	0.000000 	 25.560000 	 0.000000 
26 	 1 	1.229756 	 26.270000 	 0.000000 
27 	 1 	1.229756 	 27.690000 	 0.000000 
28 	 1 	0.000000 	 28.400000 	 0.000000 
29 	 1 	0.000000 	 29.820000 	 0.000000 
30 	 1 	1.229756 	 30.530000 	 0.000000 
31 	 1 	1.229756 	 31.950000 	 0.000000 
32 	 1 	0.000000 	 32.660000 	 0.000000 
33 	 1 	0.000000 	 34.080000 	 0.000000 
34 	 1 	1.229756 	 34.790000 	 0.000000 
35 	 1 	1.229756 	 36.210000 	 0.000000 
36 	 1 	0.000000 	 36.920000 	 0.000000 
37 	 1 	0.000000 	 38.340000 	 0.000000 
38 	 1 	1.229756 	 39.050000 	 0.000000 
39 	 1 	1.229756 	 40.470000 	 0.000000 
40 	 1 	0.000000 	 41.180000 	 0.000000 
41 	 1 	0.000000 	 42.600000 	 0.000000 
42 	 1 	1.229756 	 43.310000 	 0.000000 
43 	 1 	1.229756 	 44.730000 	 0.000000 
44 	 1 	0.000000 	 45.440000 	 0.000000 
45 	 1 	0.000000 	 46.860000 	 0.000000 
46 	 1 	1.229756 	 47.570000 	 0.000000 
47 	 1 	1.229756 	 48.990000 	 0.000000 
48 	 1 	0.000000 	 49.700000 	 0.000000 
49 	 1 	0.000000 	 51.120000 	 0.000000 
50 	 1 	1.229756 	 51.830000 	 0.000000 
51 	 1 	1.229756 	 53.250000 	 0.000000 
52 	 1 	0.000000 	 53.960000 	 0.000000 
53 	 1 	0.000000 	 55.380000 	 0.000000 
54 	 1 	1.229756 	 56.090000 	 0.000000 
55 	 1 	1.229756 	 57.510000 	 0.000000 
56 	 1 	0.000000 	 58.220000 	 0.000000 
57 	 1 	0.000000 	 59.640000 	 0.000000 
58 	 1 	1.229756 	 60.350000 	 0.000000 
59 	 1 	1.229756 	 61.770000 	 0.000000 
60 	 1 	0.000000 	 62.480000 	 0.000000 
61 	 1 	0.000000 	 63.900000 	 0.000000 
62 	 1 	1.229756 	 64.610000 	 0.000000 
63 	 1 	1.229756 	 66.030000 	 0.000000 
64 	 1 	0.000000 	 66.740000 	 0.000000 
65 	 1 	0.000000 	 68.160000 	 0.000000 
66 	 1 	1.229756 	 68.870000 	 0.000000 
67 	 1 	1.229756 	 70.290000 	 0.000000 
68 	 1 	0.000000 	 71.000000 	 0.000000 
69 	 1 	0.000000 	 72.420000 	 0.000000 
70 	 1 	1.229756 	 73.130000 	 0.000000 
71 	 1 	1.229756 	 74.550000 	 0.000000 
72 	 1 	0.000000 	 75.260000 	 0.000000 
73 	 1 	0.000000 	 76.680000 	 0.000000 
74 	 1 	1.229756 	 77.390000 	 0.000000 
75 	 1 	1.229756 	 78.810000 	 0.000000 
76 	 1 	0.000000 	 79.520000 	 0.000000 
77 	 1 	0.000000 	 80.940000 	 0.000000 
78 	 1 	1.229756 	 81.650000 	 0.000000 
79 	 1 	1.229756 	 83.070000 	 0.000000 
80 	 1 	0.000000 	 83.780000 	 0.000000 
81 	 1 	0.000000 	 85.200000 	 0.000000 
82 	 1 	1.229756 	 85.910000 	 0.000000 
83 	 1 	1.229756 	 87.330000 	 0.000000 
84 	 1 	0.000000 	 88.040000 	 0.000000 
85 	 1 	0.000000 	 89.460000 	 0.000000 
86 	 1 	1.229756 	 90.170000 	 0.000000 
87 	 1 	1.229756 	 91.590000 	 0.000000 
88 	 1 	0.000000 	 92.300000 	 0.000000 
89 	 1 	0.000000 	 93.720000 	 0.000000 
90 	 1 	1.229756 	 94.430000 	 0.000000 
91 	 1 	1.229756 	 95.850000 	 0.000000 
92 	 1 	0.000000 	 96.560000 	 0.000000 
93 	 1 	0.000000 	 97.980000 	 0.000000 
94 	 1 	1.229756 	 98.690000 	 0.000000 
95 	 1 	1.229756 	 100.110000 	 0.000000 
96 	 1 	0.000000 	 100.820000 	 0.000000 
97 	 1 	0.000000 	 102.240000 	 0.000000 
98 	 1 	1.229756 	 102.950000 	 0.000000 
99 	 1 	1.229756 	 104.370000 	 0.000000 
100 	 1 	0.000000 	 105.080000 	 0.000000 
101 	 1 	0.000000 	 106.500000 	 0.000000 
102 	 1 	1.229756 	 107.210000 	 0.000000 
103 	 1 	1.229756 	 108.630000 	 0.000000 
104 	 1 	0.000000 	 109.340000 	 0.000000 
105 	 1 	0.000000 	 110.760000 	 0.000000 
106 	 1 	1.229756 	 111.470000 	 0.000000 
107 	 1 	1.229756 	 112.890000 	 0.000000 
108 	 1 	0.000000 	 113.600000 	 0.000000 
109 	 1 	0.000000 	 115.020000 	 0.000000 
110 	 1 	1.229756 	 115.730000 	 0.000000 
111 	 1 	1.229756 	 117.150000 	 0.000000 
112 	 1 	0.000000 	 117.860000 	 0.000000 
113 	 1 	0.000000 	 119.280000 	 0.000000 
114 	 1 	1.229756 	 119.990000 	 0.000000 
115 	 1 	1.229756 	 121.410000 	 0.000000 
116 	 1 	0.000000 	 122.120000 	 0.000000 
117 	 1 	0.000000 	 123.540000 	 0.000000 
118 	 1 	1.229756 	 124.250000 	 0.000000 
119 	 1 	1.229756 	 125.670000 	 0.000000 
120 	 1 	0.000000 	 126.380000 	 0.000000 
121 	 1 	0.000000 	 127.800000 	 0.000000 
122 	 1 	1.229756 	 128.510000 	 0.000000 
123 	 1 	1.229756 	 129.930000 	 0.000000 
124 	 1 	0.000000 	 130.640000 	 0.000000 
125 	 1 	0.000000 	 132.060000 	 0.000000 
126 	 1 	1.229756 	 132.770000 	 0.000000 
127 	 1 	1.229756 	 134.190000 	 0.000000 
128 	 1 	0.000000 	 134.900000 	 0.000000 
129 	 1 	0.000000 	 136.320000 	 0.000000 
130 	 1 	1.229756 	 137.030000 	 0.000000 
131 	 1 	1.229756 	 138.450000 	 0.000000 
132 	 1 	0.000000 	 139.160000 	 0.000000 
133 	 1 	0.000000 	 140.580000 	 0.000000 
134 	 1 	1.229756 	 141.290000 	 0.000000 
135 	 1 	1.229756 	 142.710000 	 0.000000 
136 	 1 	0.000000 	 143.420000 	 0.000000 
137 	 1 	0.000000 	 144.840000 	 0.000000 
138 	 1 	1.229756 	 145.550000 	 0.000000 
139 	 1 	1.229756 	 146.970000 	 0.000000 
140 	 1 	0.000000 	 147.680000 	 0.000000 
141 	 1 	0.000000 	 149.100000 	 0.000000 
142 	 1 	1.229756 	 149.810000 	 0.000000 
143 	 1 	1.229756 	 151.230000 	 0.000000 
144 	 1 	0.000000 	 151.940000 	 0.000000 
145 	 1 	0.000000 	 153.360000 	 0.000000 
146 	 1 	1.229756 	 154.070000 	 0.000000 
147 	 1 	1.229756 	 155.490000 	 0.000000 
148 	 1 	0.000000 	 156.200000 	 0.000000 
149 	 1 	0.000000 	 157.620000 	 0.000000 
150 	 1 	1.229756 	 158.330000 	 0.000000 
151 	 1 	1.229756 	 159.750000 	 0.000000 
152 	 1 	0.000000 	 160.460000 	 0.000000 
153 	 1 	0.000000 	 161.880000 	 0.000000 
154 	 1 	1.229756 	 162.590000 	 0.000000 
155 	 1 	1.229756 	 164.010000 	 0.000000 
156 	 1 	0.000000 	 164.720000 	 0.000000 
157 	 1 	0.000000 	 166.140000 	 0.000000 
158 	 1 	1.229756 	 166.850000 	 0.000000 
159 	 1 	1.229756 	 168.270000 	 0.000000 
160 	 1 	0.000000 	 168.980000 	 0.000000 
161 	 1 	0.000000 	 170.400000 	 0.000000 
162 	 1 	1.229756 	 171.110000 	 0.000000 
163 	 1 	1.229756 	 172.530000 	 0.000000 
164 	 1 	0.000000 	 173.240000 	 0.000000 
165 	 1 	0.000000 	 174.660000 	 0.000000 
166 	 1 	1.229756 	 175.370000 	 0.000000 
167 	 1 	1.229756 	 176.790000 	 0.000000 
168 	 1 	0.000000 	 177.500000 	 0.000000 
169 	 1 	0.000000 	 178.920000 	 0.000000 
170 	 1 	1.229756 	 179.630000 	 0.000000 
171 	 1 	1.229756 	 181.050000 	 0.000000 
172 	 1 	0.000000 	 181.760000 	 0.000000 
173 	 1 	0.000000 	 183.180000 	 0.000000 
174 	 1 	1.229756 	 183.890000 	 0.000000 
175 	 1 	1.229756 	 185.310000 	 0.000000 
176 	 1 	0.000000 	 186.020000 	 0.000000 
177 	 1 	0.000000 	 187.440000 	 0.000000 
178 	 1 	1.229756 	 188.150000 	 0.000000 
179 	 1 	1.229756 	 189.570000 	 0.000000 
180 	 1 	0.000000 	 190.280000 	 0.000000 
181 	 1 	0.000000 	 191.700000 	 0.000000 
182 	 1 	1.229756 	 192.410000 	 0.000000 
183 	 1 	1.229756 	 193.830000 	 0.000000 
184 	 1 	0.000000 	 194.540000 	 0.000000 
185 	 1 	0.000000 	 195.960000 	 0.000000 
186 	 1 	1.229756 	 196.670000 	 0.000000 
187 	 1 	1.229756 	 198.090000 	 0.000000 
188 	 1 	0.000000 	 198.800000 	 0.000000 
189 	 1 	0.000000 	 200.220000 	 0.000000 
190 	 1 	1.229756 	 200.930000 	 0.000000 
191 	 1 	1.229756 	 202.350000 	 0.000000 
192 	 1 	0.000000 	 203.060000 	 0.000000 
193 	 1 	0.000000 	 204.480000 	 0.000000 
194 	 1 	1.229756 	 205.190000 	 0.000000 
195 	 1 	1.229756 	 206.610000 	 0.000000 
196 	 1 	0.000000 	 207.320000 	 0.000000 
197 	 1 	0.000000 	 208.740000 	 0.000000 
198 	 1 	1.229756 	 209.450000 	 0.000000 
199 	 1 	1.229756 	 210.870000 	 0.000000 
200 	 1 	0.000000 	 211.580000 	 0.000000 
201 	 1 	0.000000 	 213.000000 	 0.000000 
202 	 1 	1.229756 	 213.710000 	 0.000000 
203 	 1 	1.229756 	 215.130000 	 0.000000 
204 	 1 	0.000000 	 215.840000 	 0.000000 
205 	 1 	0.000000 	 217.260000 	 0.000000 
206 	 1 	1.229756 	 217.970000 	 0.000000 
207 	 1 	1.229756 	 219.390000 	 0.000000 
208 	 1 	0.000000 	 220.100000 	 0.000000 
209 	 1 	0.000000 	 221.520000 	 0.000000 
210 	 1 	1.229756 	 222.230000 	 0.000000 
211 	 1 	1.229756 	 223.650000 	 0.000000 
212 	 1 	0.000000 	 224.360000 	 0.000000 
213 	 1 	0.000000 	 225.780000 	 0.000000 
214 	 1 	1.229756 	 226.490000 	 0.000000 
215 	 1 	1.229756 	 227.910000 	 0.000000 
216 	 1 	0.000000 	 228.620000 	 0.000000 
217 	 1 	0.000000 	 230.040000 	 0.000000 
218 	 1 	1.229756 	 230.750000 	 0.000000 
219 	 1 	1.229756 	 232.170000 	 0.000000 
220 	 1 	0.000000 	 232.880000 	 0.000000 
221 	 1 	0.000000 	 234.300000 	 0.000000 
222 	 1 	1.229756 	 235.010000 	 0.000000 
223 	 1 	1.229756 	 236.430000 	 0.000000 
224 	 1 	0.000000 	 237.140000 	 0.000000 
225 	 1 	0.000000 	 238.560000 	 0.000000 
226 	 1 	1.229756 	 239.270000 	 0.000000 
227 	 1 	1.229756 	 240.690000 	 0.000000 
228 	 1 	0.000000 	 241.400000 	 0.000000 
229 	 1 	0.000000 	 242.820000 	 0.000000 
230 	 1 	1.229756 	 243.530000 	 0.000000 
231 	 1 	1.229756 	 244.950000 	 0.000000 
232 	 1 	0.000000 	 245.660000 	 0.000000 
233 	 1 	0.000000 	 247.080000 	 0.000000 
234 	 1 	1.229756 	 247.790000 	 0.000000 
235 	 1 	1.229756 	 249.210000 	 0.000000 
236 	 1 	0.000000 	 249.920000 	 0.000000 
237 	 1 	0.000000 	 251.340000 	 0.000000 
238 	 1 	1.229756 	 252.050000 	 0.000000 
239 	 1 	1.229756 	 253.470000 	 0.000000 
240 	 1 	0.000000 	 254.180000 	 0.000000 
241 	 1 	0.000000 	 255.600000 	 0.000000 
242 	 1 	1.229756 	 256.310000 	 0.000000 
243 	 1 	1.229756 	 257.730000 	 0.000000 
244 	 1 	0.000000 	 258.440000 	 0.000000 
245 	 1 	0.000000 	 259.860000 	 0.000000 
246 	 1 	1.229756 	 260.570000 	 0.000000 
247 	 1 	1.229756 	 261.990000 	 0.000000 
248 	 1 	0.000000 	 262.700000 	 0.000000 
249 	 1 	0.000000 	 264.120000 	 0.000000 
250 	 1 	1.229756 	 264.830000 	 0.000000 
251 	 1 	1.229756 	 266.250000 	 0.000000 
252 	 1 	0.000000 	 266.960000 	 0.000000 
253 	 1 	0.000000 	 268.380000 	 0.000000 
254 	 1 	1.229756 	 269.090000 	 0.000000 
255 	 1 	1.229756 	 270.510000 	 0.000000 
256 	 1 	0.000000 	 271.220000 	 0.000000 
257 	 1 	0.000000 	 272.640000 	 0.000000 
258 	 1 	1.229756 	 273.350000 	 0.000000 
259 	 1 	1.229756 	 274.770000 	 0.000000 
260 	 1 	0.000000 	 275.480000 	 0.000000 
261 	 1 	0.000000 	 276.900000 	 0.000000 
262 	 1 	1.229756 	 277.610000 	 0.000000 
263 	 1 	1.229756 	 279.030000 	 0.000000 
264 	 1 	0.000000 	 279.740000 	 0.000000 
265 	 1 	0.000000 	 281.160000 	 0.000000 
266 	 1 	1.229756 	 281.870000 	 0.000000 
267 	 1 	1.229756 	 283.290000 	 0.000000 
268 	 1 	0.000000 	 284.000000 	 0.000000 
269 	 1 	0.000000 	 285.420000 	 0.000000 
270 	 1 	1.229756 	 286.130000 	 0.000000 
271 	 1 	1.229756 	 287.550000 	 0.000000 
272 	 1 	0.000000 	 288.260000 	 0.000000 
273 	 1 	0.000000 	 289.680000 	 0.000000 
274 	 1 	1.229756 	 290.390000 	 0.000000 
275 	 1 	1.229756 	 291.810000 	 0.000000 
276 	 1 	0.000000 	 292.520000 	 0.000000 
277 	 1 	0.000000 	 293.940000 	 0.000000 
278 	 1 	1.229756 	 294.650000 	 0.000000 
279 	 1 	1.229756 	 296.070000 	 0.000000 
280 	 1 	0.000000 	 296.780000 	 0.000000 
281 	 1 	0.000000 	 298.200000 	 0.000000 
282 	 1 	1.229756 	 298.910000 	 0.000000 
283 	 1 	1.229756 	 300.330000 	 0.000000 
284 	 1 	0.000000 	 301.040000 	 0.000000 
285 	 1 	0.000000 	 302.460000 	 0.000000 
286 	 1 	1.229756 	 303.170000 	 0.000000 
287 	 1 	1.229756 	 304.590000 	 0.000000 
288 	 1 	0.000000 	 305.300000 	 0.000000 
289 	 1 	0.000000 	 306.720000 	 0.000000 
290 	 1 	1.229756 	 307.430000 	 0.000000 
291 	 1 	1.229756 	 308.850000 	 0.000000 
292 	 1 	0.000000 	 309.560000 	 0.000000 
293 	 1 	0.000000 	 310.980000 	 0.000000 
294 	 1 	1.229756 	 311.690000 	 0.000000 
295 	 1 	1.229756 	 313.110000 	 0.000000 
296 	 1 	0.000000 	 313.820000 	 0.000000 
297 	 1 	0.000000 	 315.240000 	 0.000000 
298 	 1 	1.229756 	 315.950000 	 0.000000 
299 	 1 	1.229756 	 317.370000 	 0.000000 
300 	 1 	0.000000 	 318.080000 	 0.000000 
301 	 1 	0.000000 	 319.500000 	 0.000000 
302 	 1 	1.229756 	 320.210000 	 0.000000 
303 	 1 	1.229756 	 321.630000 	 0.000000 
304 	 1 	0.000000 	 322.340000 	 0.000000 
305 	 1 	0.000000 	 323.760000 	 0.000000 
306 	 1 	1.229756 	 324.470000 	 0.000000 
307 	 1 	1.229756 	 325.890000 	 0.000000 
308 	 1 	0.000000 	 326.600000 	 0.000000 
309 	 1 	0.000000 	 328.020000 	 0.000000 
310 	 1 	1.229756 	 328.730000 	 0.000000 
311 	 1 	1.229756 	 330.150000 	 0.000000 
312 	 1 	0.000000 	 330.860000 	 0.000000 
313 	 1 	0.000000 	 332.280000 	 0.000000 
314 	 1 	1.229756 	 332.990000 	 0.000000 
315 	 1 	1.229756 	 334.410000 	 0.000000 
316 	 1 	0.000000 	 335.120000 	 0.000000 
317 	 1 	0.000000 	 336.540000 	 0.000000 
318 	 1 	1.229756 	 337.250000 	 0.000000 
319 	 1 	1.229756 	 338.670000 	 0.000000 
320 	 1 	0.000000 	 339.380000 	 0.000000 
321 	 1 	0.000000 	 340.800000 	 0.000000 
322 	 1 	1.229756 	 341.510000 	 0.000000 
323 	 1 	1.229756 	 342.930000 	 0.000000 
324 	 1 	0.000000 	 343.640000 	 0.000000 
325 	 1 	0.000000 	 345.060000 	 0.000000 
326 	 1 	1.229756 	 345.770000 	 0.000000 
327 	 1 	1.229756 	 347.190000 	 0.000000 
328 	 1 	0.000000 	 347.900000 	 0.000000 
329 	 1 	0.000000 	 349.320000 	 0.000000 
330 	 1 	1.229756 	 350.030000 	 0.000000 
331 	 1 	1.229756 	 351.450000 	 0.000000 
332 	 1 	0.000000 	 352.160000 	 0.000000 
333 	 1 	0.000000 	 353.580000 	 0.000000 
334 	 1 	1.229756 	 354.290000 	 0.000000 
335 	 1 	1.229756 	 355.710000 	 0.000000 
336 	 1 	0.000000 	 356.420000 	 0.000000 
337 	 1 	0.000000 	 357.840000 	 0.000000 
338 	 1 	1.229756 	 358.550000 	 0.000000 
339 	 1 	1.229756 	 359.970000 	 0.000000 
340 	 1 	0.000000 	 360.680000 	 0.000000 
341 	 1 	0.000000 	 362.100000 	 0.000000 
342 	 1 	1.229756 	 362.810000 	 0.000000 
343 	 1 	1.229756 	 364.230000 	 0.000000 
344 	 1 	0.000000 	 364.940000 	 0.000000 
345 	 1 	0.000000 	 366.360000 	 0.000000 
346 	 1 	1.229756 	 367.070000 	 0.000000 
347 	 1 	1.229756 	 368.490000 	 0.000000 
348 	 1 	0.000000 	 369.200000 	 0.000000 
349 	 1 	0.000000 	 370.620000 	 0.000000 
350 	 1 	1.229756 	 371.330000 	 0.000000 
351 	 1 	1.229756 	 372.750000 	 0.000000 
352 	 1 	0.000000 	 373.460000 	 0.000000 
353 	 1 	0.000000 	 374.880000 	 0.000000 
354 	 1 	1.229756 	 375.590000 	 0.000000 
355 	 1 	1.229756 	 377.010000 	 0.000000 
356 	 1 	0.000000 	 377.720000 	 0.000000 
357 	 1 	0.000000 	 379.140000 	 0.000000 
358 	 1 	1.229756 	 379.850000 	 0.000000 
359 	 1 	1.229756 	 381.270000 	 0.000000 
360 	 1 	0.000000 	 381.980000 	 0.000000 
361 	 1 	0.000000 	 383.400000 	 0.000000 
362 	 1 	1.229756 	 384.110000 	 0.000000 
363 	 1 	1.229756 	 385.530000 	 0.000000 
364 	 1 	0.000000 	 386.240000 	 0.000000 
365 	 1 	0.000000 	 387.660000 	 0.000000 
366 	 1 	1.229756 	 388.370000 	 0.000000 
367 	 1 	1.229756 	 389.790000 	 0.000000 
368 	 1 	0.000000 	 390.500000 	 0.000000 
369 	 1 	0.000000 	 391.920000 	 0.000000 
370 	 1 	1.229756 	 392.630000 	 0.000000 
371 	 1 	1.229756 	 394.050000 	 0.000000 
372 	 1 	0.000000 	 394.760000 	 0.000000 
373 	 1 	0.000000 	 396.180000 	 0.000000 
374 	 1 	1.229756 	 396.890000 	 0.000000 
375 	 1 	1.229756 	 398.310000 	 0.000000 
376 	 1 	0.000000 	 399.020000 	 0.000000 
377 	 1 	0.000000 	 400.440000 	 0.000000 
378 	 1 	1.229756 	 401.150000 	 0.000000 
379 	 1 	1.229756 	 402.570000 	 0.000000 
380 	 1 	0.000000 	 403.280000 	 0.000000 
381 	 1 	0.000000 	 404.700000 	 0.000000 
382 	 1 	1.229756 	 405.410000 	 0.000000 
383 	 1 	1.229756 	 406.830000 	 0.000000 
384 	 1 	0.000000 	 407.540000 	 0.000000 
385 	 1 	0.000000 	 408.960000 	 0.000000 
386 	 1 	1.229756 	 409.670000 	 0.000000 
387 	 1 	1.229756 	 411.090000 	 0.000000 
388 	 1 	0.000000 	 411.800000 	 0.000000 
389 	 1 	0.000000 	 413.220000 	 0.000000 
390 	 1 	1.229756 	 413.930000 	 0.000000 
391 	 1 	1.229756 	 415.350000 	 0.000000 
392 	 1 	0.000000 	 416.060000 	 0.000000 
393 	 1 	0.000000 	 417.480000 	 0.000000 
394 	 1 	1.229756 	 418.190000 	 0.000000 
395 	 1 	1.229756 	 419.610000 	 0.000000 
396 	 1 	0.000000 	 420.320000 	 0.000000 
397 	 1 	0.000000 	 421.740000 	 0.000000 
398 	 1 	1.229756 	 422.450000 	 0.000000 
399 	 1 	1.229756 	 423.870000 	 0.000000 
400 	 1 	0.000000 	 424.580000 	 0.000000 
401 	 1 	0.000000 	 426.000000 	 0.000000 
402 	 1 	1.229756 	 426.710000 	 0.000000 
403 	 1 	1.229756 	 428.130000 	 0.000000 
404 	 1 	0.000000 	 428.840000 	 0.000000 
405 	 1 	0.000000 	 430.260000 	 0.000000 
406 	 1 	1.229756 	 430.970000 	 0.000000 
407 	 1 	1.229756 	 432.390000 	 0.000000 
408 	 1 	0.000000 	 433.100000 	 0.000000 
409 	 1 	0.000000 	 434.520000 	 0.000000 
410 	 1 	1.229756 	 435.230000 	 0.000000 
411 	 1 	1.229756 	 436.650000 	 0.000000 
412 	 1 	0.000000 	 437.360000 	 0.000000 
413 	 1 	0.000000 	 438.780000 	 0.000000 
414 	 1 	1.229756 	 439.490000 	 0.000000 
415 	 1 	1.229756 	 440.910000 	 0.000000 
416 	 1 	0.000000 	 441.620000 	 0.000000 
417 	 1 	0.000000 	 443.040000 	 0.000000 
418 	 1 	1.229756 	 443.750000 	 0.000000 
419 	 1 	1.229756 	 445.170000 	 0.000000 
420 	 1 	0.000000 	 445.880000 	 0.000000 
421 	 1 	0.000000 	 447.300000 	 0.000000 
422 	 1 	1.229756 	 448.010000 	 0.000000 
423 	 1 	1.229756 	 449.430000 	 0.000000 
424 	 1 	0.000000 	 450.140000 	 0.000000 
425 	 1 	0.000000 	 451.560000 	 0.000000 
426 	 1 	1.229756 	 452.270000 	 0.000000 
427 	 1 	1.229756 	 453.690000 	 0.000000 
428 	 1 	0.000000 	 454.400000 	 0.000000 
429 	 1 	0.000000 	 455.820000 	 0.000000 
430 	 1 	1.229756 	 456.530000 	 0.000000 
431 	 1 	1.229756 	 457.950000 	 0.000000 
432 	 1 	0.000000 	 458.660000 	 0.000000 
433 	 1 	0.000000 	 460.080000 	 0.000000 
434 	 1 	1.229756 	 460.790000 	 0.000000 
435 	 1 	1.229756 	 462.210000 	 0.000000 
436 	 1 	0.000000 	 462.920000 	 0.000000 
437 	 1 	0.000000 	 464.340000 	 0.000000 
438 	 1 	1.229756 	 465.050000 	 0.000000 
439 	 1 	1.229756 	 466.470000 	 0.000000 
440 	 1 	0.000000 	 467.180000 	 0.000000 
441 	 1 	0.000000 	 468.600000 	 0.000000 
442 	 1 	1.229756 	 469.310000 	 0.000000 
443 	 1 	1.229756 	 470.730000 	 0.000000 
444 	 1 	0.000000 	 471.440000 	 0.000000 
445 	 1 	0.000000 	 472.860000 	 0.000000 
446 	 1 	1.229756 	 473.570000 	 0.000000 
447 	 1 	1.229756 	 474.990000 	 0.000000 
448 	 1 	0.000000 	 475.700000 	 0.000000 
449 	 1 	0.000000 	 477.120000 	 0.000000 
450 	 1 	1.229756 	 477.830000 	 0.000000 
451 	 1 	1.229756 	 479.250000 	 0.000000 
452 	 1 	0.000000 	 479.960000 	 0.000000 
453 	 1 	0.000000 	 481.380000 	 0.000000 
454 	 1 	1.229756 	 482.090000 	 0.000000 
455 	 1 	1.229756 	 483.510000 	 0.000000 
456 	 1 	0.000000 	 484.220000 	 0.000000 
457 	 1 	0.000000 	 485.640000 	 0.000000 
458 	 1 	1.229756 	 486.350000 	 0.000000 
459 	 1 	1.229756 	 487.770000 	 0.000000 
460 	 1 	0.000000 	 488.480000 	 0.000000 
461 	 1 	0.000000 	 489.900000 	 0.000000 
462 	 1 	1.229756 	 490.610000 	 0.000000 
463 	 1 	1.229756 	 492.030000 	 0.000000 
464 	 1 	0.000000 	 492.740000 	 0.000000 
465 	 1 	0.000000 	 494.160000 	 0.000000 
466 	 1 	1.229756 	 494.870000 	 0.000000 
467 	 1 	1.229756 	 496.290000 	 0.000000 
468 	 1 	0.000000 	 497.000000 	 0.000000 
469 	 1 	0.000000 	 498.420000 	 0.000000 
470 	 1 	1.229756 	 499.130000 	 0.000000 
471 	 1 	1.229756 	 500.550000 	 0.000000 
472 	 1 	0.000000 	 501.260000 	 0.000000 
473 	 1 	0.000000 	 502.680000 	 0.000000 
474 	 1 	1.229756 	 503.390000 	 0.000000 
475 	 1 	1.229756 	 504.810000 	 0.000000 
476 	 1 	0.000000 	 505.520000 	 0.000000 
477 	 1 	0.000000 	 506.940000 	 0.000000 
478 	 1 	1.229756 	 507.650000 	 0.000000 
479 	 1 	1.229756 	 509.070000 	 0.000000 
480 	 1 	0.000000 	 509.780000 	 0.000000 
481 	 1 	0.000000 	 511.200000 	 0.000000 
482 	 1 	1.229756 	 511.910000 	 0.000000 
483 	 1 	1.229756 	 513.330000 	 0.000000 
484 	 1 	0.000000 	 514.040000 	 0.000000 
485 	 1 	0.000000 	 515.460000 	 0.000000 
486 	 1 	1.229756 	 516.170000 	 0.000000 
487 	 1 	1.229756 	 517.590000 	 0.000000 
488 	 1 	0.000000 	 518.300000 	 0.000000 
489 	 1 	0.000000 	 519.720000 	 0.000000 
490 	 1 	1.229756 	 520.430000 	 0.000000 
491 	 1 	1.229756 	 521.850000 	 0.000000 
492 	 1 	0.000000 	 522.560000 	 0.000000 
493 	 1 	0.000000 	 523.980000 	 0.000000 
494 	 1 	1.229756 	 524.690000 	 0.000000 
495 	 1 	1.229756 	 526.110000 	 0.000000 
496 	 1 	0.000000 	 526.820000 	 0.000000 
497 	 1 	0.000000 	 528.240000 	 0.000000 
498 	 1 	1.229756 	 528.950000 	 0.000000 
499 	 1 	1.229756 	 530.370000 	 0.000000 
500 	 1 	0.000000 	 531.080000 	 0.000000 
501 	 1 	0.000000 	 532.500000 	 0.000000 
502 	 1 	1.229756 	 533.210000 	 0.000000 
503 	 1 	1.229756 	 534.630000 	 0.000000 
504 	 1 	0.000000 	 535.340000 	 0.000000 
505 	 1 	0.000000 	 536.760000 	 0.000000 
506 	 1 	1.229756 	 537.470000 	 0.000000 
507 	 1 	1.229756 	 538.890000 	 0.000000 
508 	 1 	0.000000 	 539.600000 	 0.000000 
509 	 1 	0.000000 	 541.020000 	 0.000000 
510 	 1 	1.229756 	 541.730000 	 0.000000 
511 	 1 	1.229756 	 543.150000 	 0.000000 
512 	 1 	0.000000 	 543.860000 	 0.000000 
513 	 1 	0.000000 	 545.280000 	 0.000000 
514 	 1 	1.229756 	 545.990000 	 0.000000 
515 	 1 	1.229756 	 547.410000 	 0.000000 
516 	 1 	0.000000 	 548.120000 	 0.000000 
517 	 1 	0.000000 	 549.540000 	 0.000000 
518 	 1 	1.229756 	 550.250000 	 0.000000 
519 	 1 	1.229756 	 551.670000 	 0.000000 
520 	 1 	0.000000 	 552.380000 	 0.000000 
521 	 1 	0.000000 	 553.800000 	 0.000000 
522 	 1 	1.229756 	 554.510000 	 0.000000 
523 	 1 	1.229756 	 555.930000 	 0.000000 
524 	 1 	0.000000 	 556.640000 	 0.000000 
525 	 1 	0.000000 	 558.060000 	 0.000000 
526 	 1 	1.229756 	 558.770000 	 0.000000 
527 	 1 	1.229756 	 560.190000 	 0.000000 
528 	 1 	0.000000 	 560.900000 	 0.000000 
529 	 1 	0.000000 	 562.320000 	 0.000000 
530 	 1 	1.229756 	 563.030000 	 0.000000 
531 	 1 	1.229756 	 564.450000 	 0.000000 
532 	 1 	0.000000 	 565.160000 	 0.000000 
533 	 1 	0.000000 	 566.580000 	 0.000000 
534 	 1 	1.229756 	 567.290000 	 0.000000 
535 	 1 	1.229756 	 568.710000 	 0.000000 
536 	 1 	0.000000 	 569.420000 	 0.000000 
537 	 1 	0.000000 	 570.840000 	 0.000000 
538 	 1 	1.229756 	 571.550000 	 0.000000 
539 	 1 	1.229756 	 572.970000 	 0.000000 
540 	 1 	0.000000 	 573.680000 	 0.000000 
541 	 1 	0.000000 	 575.100000 	 0.000000 
542 	 1 	1.229756 	 575.810000 	 0.000000 
543 	 1 	1.229756 	 577.230000 	 0.000000 
544 	 1 	0.000000 	 577.940000 	 0.000000 
545 	 1 	0.000000 	 579.360000 	 0.000000 
546 	 1 	1.229756 	 580.070000 	 0.000000 
547 	 1 	1.229756 	 581.490000 	 0.000000 
548 	 1 	0.000000 	 582.200000 	 0.000000 
549 	 1 	0.000000 	 583.620000 	 0.000000 
550 	 1 	1.229756 	 584.330000 	 0.000000 
551 	 1 	1.229756 	 585.750000 	 0.000000 
552 	 1 	0.000000 	 586.460000 	 0.000000 
553 	 1 	0.000000 	 587.880000 	 0.000000 
554 	 1 	1.229756 	 588.590000 	 0.000000 
555 	 1 	1.229756 	 590.010000 	 0.000000 
556 	 1 	0.000000 	 590.720000 	 0.000000 
557 	 1 	0.000000 	 592.140000 	 0.000000 
558 	 1 	1.229756 	 592.850000 	 0.000000 
559 	 1 	1.229756 	 594.270000 	 0.000000 
560 	 1 	0.000000 	 594.980000 	 0.000000 
561 	 1 	2.459512 	 0.000000 	 0.000000 
562 	 1 	3.689268 	 0.710000 	 0.000000 
563 	 1 	3.689268 	 2.130000 	 0.000000 
564 	 1 	2.459512 	 2.840000 	 0.000000 
565 	 1 	2.459512 	 4.260000 	 0.000000 
566 	 1 	3.689268 	 4.970000 	 0.000000 
567 	 1 	3.689268 	 6.390000 	 0.000000 
568 	 1 	2.459512 	 7.100000 	 0.000000 
569 	 1 	2.459512 	 8.520000 	 0.000000 
570 	 1 	3.689268 	 9.230000 	 0.000000 
571 	 1 	3.689268 	 10.650000 	 0.000000 
572 	 1 	2.459512 	 11.360000 	 0.000000 
573 	 1 	2.459512 	 12.780000 	 0.000000 
574 	 1 	3.689268 	 13.490000 	 0.000000 
575 	 1 	3.689268 	 14.910000 	 0.000000 
576 	 1 	2.459512 	 15.620000 	 0.000000 
577 	 1 	2.459512 	 17.040000 	 0.000000 
578 	 1 	3.689268 	 17.750000 	 0.000000 
579 	 1 	3.689268 	 19.170000 	 0.000000 
580 	 1 	2.459512 	 19.880000 	 0.000000 
581 	 1 	2.459512 	 21.300000 	 0.000000 
582 	 1 	3.689268 	 22.010000 	 0.000000 
583 	 1 	3.689268 	 23.430000 	 0.000000 
584 	 1 	2.459512 	 24.140000 	 0.000000 
585 	 1 	2.459512 	 25.560000 	 0.000000 
586 	 1 	3.689268 	 26.270000 	 0.000000 
587 	 1 	3.689268 	 27.690000 	 0.000000 
588 	 1 	2.459512 	 28.400000 	 0.000000 
589 	 1 	2.459512 	 29.820000 	 0.000000 
590 	 1 	3.689268 	 30.530000 	 0.000000 
591 	 1 	3.689268 	 31.950000 	 0.000000 
592 	 1 	2.459512 	 32.660000 	 0.000000 
593 	 1 	2.459512 	 34.080000 	 0.000000 
594 	 1 	3.689268 	 34.790000 	 0.000000 
595 	 1 	3.689268 	 36.210000 	 0.000000 
596 	 1 	2.459512 	 36.920000 	 0.000000 
597 	 1 	2.459512 	 38.340000 	 0.000000 
598 	 1 	3.689268 	 39.050000 	 0.000000 
599 	 1 	3.689268 	 40.470000 	 0.000000 
600 	 1 	2.459512 	 41.180000 	 0.000000 
601 	 1 	2.459512 	 42.600000 	 0.000000 
602 	 1 	3.689268 	 43.310000 	 0.000000 
603 	 1 	3.689268 	 44.730000 	 0.000000 
604 	 1 	2.459512 	 45.440000 	 0.000000 
605 	 1 	2.459512 	 46.860000 	 0.000000 
606 	 1 	3.689268 	 47.570000 	 0.000000 
607 	 1 	3.689268 	 48.990000 	 0.000000 
608 	 1 	2.459512 	 49.700000 	 0.000000 
609 	 1 	2.459512 	 51.120000 	 0.000000 
610 	 1 	3.689268 	 51.830000 	 0.000000 
611 	 1 	3.689268 	 53.250000 	 0.000000 
612 	 1 	2.459512 	 53.960000 	 0.000000 
613 	 1 	2.459512 	 55.380000 	 0.000000 
614 	 1 	3.689268 	 56.090000 	 0.000000 
615 	 1 	3.689268 	 57.510000 	 0.000000 
616 	 1 	2.459512 	 58.220000 	 0.000000 
617 	 1 	2.459512 	 59.640000 	 0.000000 
618 	 1 	3.689268 	 60.350000 	 0.000000 
619 	 1 	3.689268 	 61.770000 	 0.000000 
620 	 1 	2.459512 	 62.480000 	 0.000000 
621 	 1 	2.459512 	 63.900000 	 0.000000 
622 	 1 	3.689268 	 64.610000 	 0.000000 
623 	 1 	3.689268 	 66.030000 	 0.000000 
624 	 1 	2.459512 	 66.740000 	 0.000000 
625 	 1 	2.459512 	 68.160000 	 0.000000 
626 	 1 	3.689268 	 68.870000 	 0.000000 
627 	 1 	3.689268 	 70.290000 	 0.000000 
628 	 1 	2.459512 	 71.000000 	 0.000000 
629 	 1 	2.459512 	 72.420000 	 0.000000 
630 	 1 	3.689268 	 73.130000 	 0.000000 
631 	 1 	3.689268 	 74.550000 	 0.000000 
632 	 1 	2.459512 	 75.260000 	 0.000000 
633 	 1 	2.459512 	 76.680000 	 0.000000 
634 	 1 	3.689268 	 77.390000 	 0.000000 
635 	 1 	3.689268 	 78.810000 	 0.000000 
636 	 1 	2.459512 	 79.520000 	 0.000000 
637 	 1 	2.459512 	 80.940000 	 0.000000 
638 	 1 	3.689268 	 81.650000 	 0.000000 
639 	 1 	3.689268 	 83.070000 	 0.000000 
640 	 1 	2.459512 	 83.780000 	 0.000000 
641 	 1 	2.459512 	 85.200000 	 0.000000 
642 	 1 	3.689268 	 85.910000 	 0.000000 
643 	 1 	3.689268 	 87.330000 	 0.000000 
644 	 1 	2.459512 	 88.040000 	 0.000000 
645 	 1 	2.459512 	 89.460000 	 0.000000 
646 	 1 	3.689268 	 90.170000 	 0.000000 
647 	 1 	3.689268 	 91.590000 	 0.000000 
648 	 1 	2.459512 	 92.300000 	 0.000000 
649 	 1 	2.459512 	 93.720000 	 0.000000 
650 	 1 	3.689268 	 94.430000 	 0.000000 
651 	 1 	3.689268 	 95.850000 	 0.000000 
652 	 1 	2.459512 	 96.560000 	 0.000000 
653 	 1 	2.459512 	 97.980000 	 0.000000 
654 	 1 	3.689268 	 98.690000 	 0.000000 
655 	 1 	3.689268 	 100.110000 	 0.000000 
656 	 1 	2.459512 	 100.820000 	 0.000000 
657 	 1 	2.459512 	 102.240000 	 0.000000 
658 	 1 	3.689268 	 102.950000 	 0.000000 
659 	 1 	3.689268 	 104.370000 	 0.000000 
660 	 1 	2.459512 	 105.080000 	 0.000000 
661 	 1 	2.459512 	 106.500000 	 0.000000 
662 	 1 	3.689268 	 107.210000 	 0.000000 
663 	 1 	3.689268 	 108.630000 	 0.000000 
664 	 1 	2.459512 	 109.340000 	 0.000000 
665 	 1 	2.459512 	 110.760000 	 0.000000 
666 	 1 	3.689268 	 111.470000 	 0.000000 
667 	 1 	3.689268 	 112.890000 	 0.000000 
668 	 1 	2.459512 	 113.600000 	 0.000000 
669 	 1 	2.459512 	 115.020000 	 0.000000 
670 	 1 	3.689268 	 115.730000 	 0.000000 
671 	 1 	3.689268 	 117.150000 	 0.000000 
672 	 1 	2.459512 	 117.860000 	 0.000000 
673 	 1 	2.459512 	 119.280000 	 0.000000 
674 	 1 	3.689268 	 119.990000 	 0.000000 
675 	 1 	3.689268 	 121.410000 	 0.000000 
676 	 1 	2.459512 	 122.120000 	 0.000000 
677 	 1 	2.459512 	 123.540000 	 0.000000 
678 	 1 	3.689268 	 124.250000 	 0.000000 
679 	 1 	3.689268 	 125.670000 	 0.000000 
680 	 1 	2.459512 	 126.380000 	 0.000000 
681 	 1 	2.459512 	 127.800000 	 0.000000 
682 	 1 	3.689268 	 128.510000 	 0.000000 
683 	 1 	3.689268 	 129.930000 	 0.000000 
684 	 1 	2.459512 	 130.640000 	 0.000000 
685 	 1 	2.459512 	 132.060000 	 0.000000 
686 	 1 	3.689268 	 132.770000 	 0.000000 
687 	 1 	3.689268 	 134.190000 	 0.000000 
688 	 1 	2.459512 	 134.900000 	 0.000000 
689 	 1 	2.459512 	 136.320000 	 0.000000 
690 	 1 	3.689268 	 137.030000 	 0.000000 
691 	 1 	3.689268 	 138.450000 	 0.000000 
692 	 1 	2.459512 	 139.160000 	 0.000000 
693 	 1 	2.459512 	 140.580000 	 0.000000 
694 	 1 	3.689268 	 141.290000 	 0.000000 
695 	 1 	3.689268 	 142.710000 	 0.000000 
696 	 1 	2.459512 	 143.420000 	 0.000000 
697 	 1 	2.459512 	 144.840000 	 0.000000 
698 	 1 	3.689268 	 145.550000 	 0.000000 
699 	 1 	3.689268 	 146.970000 	 0.000000 