
 4240 atoms 
 6 atom types 
0.000000 	 9.838049 	 xlo xhi
-5.000000 	 64.640000 	 ylo yhi
-5.000000 	 216.800000 	 zlo zhi

 Masses 
 
1 	 12.0107 
2 	 12.0107 
3 	 12.0107 
4 	 12.0107 
5 	 12.0107 
6 	 12.0107 

  Atoms

1 	 1 	0.000000 	 0.000000 	 0.000000
2 	 1 	1.229756 	 0.710000 	 0.000000
3 	 1 	1.229756 	 2.130000 	 0.000000
4 	 1 	0.000000 	 2.840000 	 0.000000
5 	 1 	0.000000 	 4.260000 	 0.000000
6 	 1 	1.229756 	 4.970000 	 0.000000
7 	 1 	1.229756 	 6.390000 	 0.000000
8 	 1 	0.000000 	 7.100000 	 0.000000
9 	 1 	0.000000 	 8.520000 	 0.000000
10 	 1 	1.229756 	 9.230000 	 0.000000
11 	 1 	1.229756 	 10.650000 	 0.000000
12 	 1 	0.000000 	 11.360000 	 0.000000
13 	 1 	0.000000 	 12.780000 	 0.000000
14 	 1 	1.229756 	 13.490000 	 0.000000
15 	 1 	1.229756 	 14.910000 	 0.000000
16 	 1 	0.000000 	 15.620000 	 0.000000
17 	 1 	0.000000 	 17.040000 	 0.000000
18 	 1 	1.229756 	 17.750000 	 0.000000
19 	 1 	1.229756 	 19.170000 	 0.000000
20 	 1 	0.000000 	 19.880000 	 0.000000
21 	 1 	0.000000 	 21.300000 	 0.000000
22 	 1 	1.229756 	 22.010000 	 0.000000
23 	 1 	1.229756 	 23.430000 	 0.000000
24 	 1 	0.000000 	 24.140000 	 0.000000
25 	 1 	0.000000 	 25.560000 	 0.000000
26 	 1 	1.229756 	 26.270000 	 0.000000
27 	 1 	1.229756 	 27.690000 	 0.000000
28 	 1 	0.000000 	 28.400000 	 0.000000
29 	 1 	0.000000 	 29.820000 	 0.000000
30 	 1 	1.229756 	 30.530000 	 0.000000
31 	 1 	1.229756 	 31.950000 	 0.000000
32 	 1 	0.000000 	 32.660000 	 0.000000
33 	 1 	0.000000 	 34.080000 	 0.000000
34 	 1 	1.229756 	 34.790000 	 0.000000
35 	 1 	1.229756 	 36.210000 	 0.000000
36 	 1 	0.000000 	 36.920000 	 0.000000
37 	 1 	0.000000 	 38.340000 	 0.000000
38 	 1 	1.229756 	 39.050000 	 0.000000
39 	 1 	1.229756 	 40.470000 	 0.000000
40 	 1 	0.000000 	 41.180000 	 0.000000
41 	 1 	0.000000 	 42.600000 	 0.000000
42 	 1 	1.229756 	 43.310000 	 0.000000
43 	 1 	1.229756 	 44.730000 	 0.000000
44 	 1 	0.000000 	 45.440000 	 0.000000
45 	 1 	0.000000 	 46.860000 	 0.000000
46 	 1 	1.229756 	 47.570000 	 0.000000
47 	 1 	1.229756 	 48.990000 	 0.000000
48 	 1 	0.000000 	 49.700000 	 0.000000
49 	 1 	0.000000 	 51.120000 	 0.000000
50 	 1 	1.229756 	 51.830000 	 0.000000
51 	 1 	1.229756 	 53.250000 	 0.000000
52 	 1 	0.000000 	 53.960000 	 0.000000
53 	 1 	0.000000 	 55.380000 	 0.000000
54 	 1 	1.229756 	 56.090000 	 0.000000
55 	 1 	1.229756 	 57.510000 	 0.000000
56 	 1 	0.000000 	 58.220000 	 0.000000
57 	 1 	2.459512 	 0.000000 	 0.000000
58 	 1 	3.689268 	 0.710000 	 0.000000
59 	 1 	3.689268 	 2.130000 	 0.000000
60 	 1 	2.459512 	 2.840000 	 0.000000
61 	 1 	2.459512 	 4.260000 	 0.000000
62 	 1 	3.689268 	 4.970000 	 0.000000
63 	 1 	3.689268 	 6.390000 	 0.000000
64 	 1 	2.459512 	 7.100000 	 0.000000
65 	 1 	2.459512 	 8.520000 	 0.000000
66 	 1 	3.689268 	 9.230000 	 0.000000
67 	 1 	3.689268 	 10.650000 	 0.000000
68 	 1 	2.459512 	 11.360000 	 0.000000
69 	 1 	2.459512 	 12.780000 	 0.000000
70 	 1 	3.689268 	 13.490000 	 0.000000
71 	 1 	3.689268 	 14.910000 	 0.000000
72 	 1 	2.459512 	 15.620000 	 0.000000
73 	 1 	2.459512 	 17.040000 	 0.000000
74 	 1 	3.689268 	 17.750000 	 0.000000
75 	 1 	3.689268 	 19.170000 	 0.000000
76 	 1 	2.459512 	 19.880000 	 0.000000
77 	 1 	2.459512 	 21.300000 	 0.000000
78 	 1 	3.689268 	 22.010000 	 0.000000
79 	 1 	3.689268 	 23.430000 	 0.000000
80 	 1 	2.459512 	 24.140000 	 0.000000
81 	 1 	2.459512 	 25.560000 	 0.000000
82 	 1 	3.689268 	 26.270000 	 0.000000
83 	 1 	3.689268 	 27.690000 	 0.000000
84 	 1 	2.459512 	 28.400000 	 0.000000
85 	 1 	2.459512 	 29.820000 	 0.000000
86 	 1 	3.689268 	 30.530000 	 0.000000
87 	 1 	3.689268 	 31.950000 	 0.000000
88 	 1 	2.459512 	 32.660000 	 0.000000
89 	 1 	2.459512 	 34.080000 	 0.000000
90 	 1 	3.689268 	 34.790000 	 0.000000
91 	 1 	3.689268 	 36.210000 	 0.000000
92 	 1 	2.459512 	 36.920000 	 0.000000
93 	 1 	2.459512 	 38.340000 	 0.000000
94 	 1 	3.689268 	 39.050000 	 0.000000
95 	 1 	3.689268 	 40.470000 	 0.000000
96 	 1 	2.459512 	 41.180000 	 0.000000
97 	 1 	2.459512 	 42.600000 	 0.000000
98 	 1 	3.689268 	 43.310000 	 0.000000
99 	 1 	3.689268 	 44.730000 	 0.000000
100 	 1 	2.459512 	 45.440000 	 0.000000
101 	 1 	2.459512 	 46.860000 	 0.000000
102 	 1 	3.689268 	 47.570000 	 0.000000
103 	 1 	3.689268 	 48.990000 	 0.000000
104 	 1 	2.459512 	 49.700000 	 0.000000
105 	 1 	2.459512 	 51.120000 	 0.000000
106 	 1 	3.689268 	 51.830000 	 0.000000
107 	 1 	3.689268 	 53.250000 	 0.000000
108 	 1 	2.459512 	 53.960000 	 0.000000
109 	 1 	2.459512 	 55.380000 	 0.000000
110 	 1 	3.689268 	 56.090000 	 0.000000
111 	 1 	3.689268 	 57.510000 	 0.000000
112 	 1 	2.459512 	 58.220000 	 0.000000
113 	 1 	4.919024 	 0.000000 	 0.000000
114 	 1 	6.148780 	 0.710000 	 0.000000
115 	 1 	6.148780 	 2.130000 	 0.000000
116 	 1 	4.919024 	 2.840000 	 0.000000
117 	 1 	4.919024 	 4.260000 	 0.000000
118 	 1 	6.148780 	 4.970000 	 0.000000
119 	 1 	6.148780 	 6.390000 	 0.000000
120 	 1 	4.919024 	 7.100000 	 0.000000
121 	 1 	4.919024 	 8.520000 	 0.000000
122 	 1 	6.148780 	 9.230000 	 0.000000
123 	 1 	6.148780 	 10.650000 	 0.000000
124 	 1 	4.919024 	 11.360000 	 0.000000
125 	 1 	4.919024 	 12.780000 	 0.000000
126 	 1 	6.148780 	 13.490000 	 0.000000
127 	 1 	6.148780 	 14.910000 	 0.000000
128 	 1 	4.919024 	 15.620000 	 0.000000
129 	 1 	4.919024 	 17.040000 	 0.000000
130 	 1 	6.148780 	 17.750000 	 0.000000
131 	 1 	6.148780 	 19.170000 	 0.000000
132 	 1 	4.919024 	 19.880000 	 0.000000
133 	 1 	4.919024 	 21.300000 	 0.000000
134 	 1 	6.148780 	 22.010000 	 0.000000
135 	 1 	6.148780 	 23.430000 	 0.000000
136 	 1 	4.919024 	 24.140000 	 0.000000
137 	 1 	4.919024 	 25.560000 	 0.000000
138 	 1 	6.148780 	 26.270000 	 0.000000
139 	 1 	6.148780 	 27.690000 	 0.000000
140 	 1 	4.919024 	 28.400000 	 0.000000
141 	 1 	4.919024 	 29.820000 	 0.000000
142 	 1 	6.148780 	 30.530000 	 0.000000
143 	 1 	6.148780 	 31.950000 	 0.000000
144 	 1 	4.919024 	 32.660000 	 0.000000
145 	 1 	4.919024 	 34.080000 	 0.000000
146 	 1 	6.148780 	 34.790000 	 0.000000
147 	 1 	6.148780 	 36.210000 	 0.000000
148 	 1 	4.919024 	 36.920000 	 0.000000
149 	 1 	4.919024 	 38.340000 	 0.000000
150 	 1 	6.148780 	 39.050000 	 0.000000
151 	 1 	6.148780 	 40.470000 	 0.000000
152 	 1 	4.919024 	 41.180000 	 0.000000
153 	 1 	4.919024 	 42.600000 	 0.000000
154 	 1 	6.148780 	 43.310000 	 0.000000
155 	 1 	6.148780 	 44.730000 	 0.000000
156 	 1 	4.919024 	 45.440000 	 0.000000
157 	 1 	4.919024 	 46.860000 	 0.000000
158 	 1 	6.148780 	 47.570000 	 0.000000
159 	 1 	6.148780 	 48.990000 	 0.000000
160 	 1 	4.919024 	 49.700000 	 0.000000
161 	 1 	4.919024 	 51.120000 	 0.000000
162 	 1 	6.148780 	 51.830000 	 0.000000
163 	 1 	6.148780 	 53.250000 	 0.000000
164 	 1 	4.919024 	 53.960000 	 0.000000
165 	 1 	4.919024 	 55.380000 	 0.000000
166 	 1 	6.148780 	 56.090000 	 0.000000
167 	 1 	6.148780 	 57.510000 	 0.000000
168 	 1 	4.919024 	 58.220000 	 0.000000
169 	 1 	7.378536 	 0.000000 	 0.000000
170 	 1 	8.608293 	 0.710000 	 0.000000
171 	 1 	8.608293 	 2.130000 	 0.000000
172 	 1 	7.378536 	 2.840000 	 0.000000
173 	 1 	7.378536 	 4.260000 	 0.000000
174 	 1 	8.608293 	 4.970000 	 0.000000
175 	 1 	8.608293 	 6.390000 	 0.000000
176 	 1 	7.378536 	 7.100000 	 0.000000
177 	 1 	7.378536 	 8.520000 	 0.000000
178 	 1 	8.608293 	 9.230000 	 0.000000
179 	 1 	8.608293 	 10.650000 	 0.000000
180 	 1 	7.378536 	 11.360000 	 0.000000
181 	 1 	7.378536 	 12.780000 	 0.000000
182 	 1 	8.608293 	 13.490000 	 0.000000
183 	 1 	8.608293 	 14.910000 	 0.000000
184 	 1 	7.378536 	 15.620000 	 0.000000
185 	 1 	7.378536 	 17.040000 	 0.000000
186 	 1 	8.608293 	 17.750000 	 0.000000
187 	 1 	8.608293 	 19.170000 	 0.000000
188 	 1 	7.378536 	 19.880000 	 0.000000
189 	 1 	7.378536 	 21.300000 	 0.000000
190 	 1 	8.608293 	 22.010000 	 0.000000
191 	 1 	8.608293 	 23.430000 	 0.000000
192 	 1 	7.378536 	 24.140000 	 0.000000
193 	 1 	7.378536 	 25.560000 	 0.000000
194 	 1 	8.608293 	 26.270000 	 0.000000
195 	 1 	8.608293 	 27.690000 	 0.000000
196 	 1 	7.378536 	 28.400000 	 0.000000
197 	 1 	7.378536 	 29.820000 	 0.000000
198 	 1 	8.608293 	 30.530000 	 0.000000
199 	 1 	8.608293 	 31.950000 	 0.000000
200 	 1 	7.378536 	 32.660000 	 0.000000
201 	 1 	7.378536 	 34.080000 	 0.000000
202 	 1 	8.608293 	 34.790000 	 0.000000
203 	 1 	8.608293 	 36.210000 	 0.000000
204 	 1 	7.378536 	 36.920000 	 0.000000
205 	 1 	7.378536 	 38.340000 	 0.000000
206 	 1 	8.608293 	 39.050000 	 0.000000
207 	 1 	8.608293 	 40.470000 	 0.000000
208 	 1 	7.378536 	 41.180000 	 0.000000
209 	 1 	7.378536 	 42.600000 	 0.000000
210 	 1 	8.608293 	 43.310000 	 0.000000
211 	 1 	8.608293 	 44.730000 	 0.000000
212 	 1 	7.378536 	 45.440000 	 0.000000
213 	 1 	7.378536 	 46.860000 	 0.000000
214 	 1 	8.608293 	 47.570000 	 0.000000
215 	 1 	8.608293 	 48.990000 	 0.000000
216 	 1 	7.378536 	 49.700000 	 0.000000
217 	 1 	7.378536 	 51.120000 	 0.000000
218 	 1 	8.608293 	 51.830000 	 0.000000
219 	 1 	8.608293 	 53.250000 	 0.000000
220 	 1 	7.378536 	 53.960000 	 0.000000
221 	 1 	7.378536 	 55.380000 	 0.000000
222 	 1 	8.608293 	 56.090000 	 0.000000
223 	 1 	8.608293 	 57.510000 	 0.000000
224 	 1 	7.378536 	 58.220000 	 0.000000
225 	 1 	0.000000 	 1.420000 	 3.340000
226 	 1 	1.229756 	 2.130000 	 3.340000
227 	 1 	1.229756 	 3.550000 	 3.340000
228 	 2 	0.000000 	 4.260000 	 3.340000
229 	 2 	0.000000 	 5.680000 	 3.340000
230 	 2 	1.229756 	 6.390000 	 3.340000
231 	 2 	1.229756 	 7.810000 	 3.340000
232 	 2 	0.000000 	 8.520000 	 3.340000
233 	 2 	0.000000 	 9.940000 	 3.340000
234 	 2 	1.229756 	 10.650000 	 3.340000
235 	 2 	1.229756 	 12.070000 	 3.340000
236 	 2 	0.000000 	 12.780000 	 3.340000
237 	 2 	0.000000 	 14.200000 	 3.340000
238 	 2 	1.229756 	 14.910000 	 3.340000
239 	 2 	1.229756 	 16.330000 	 3.340000
240 	 2 	0.000000 	 17.040000 	 3.340000
241 	 2 	0.000000 	 18.460000 	 3.340000
242 	 2 	1.229756 	 19.170000 	 3.340000
243 	 2 	1.229756 	 20.590000 	 3.340000
244 	 2 	0.000000 	 21.300000 	 3.340000
245 	 2 	0.000000 	 22.720000 	 3.340000
246 	 2 	1.229756 	 23.430000 	 3.340000
247 	 2 	1.229756 	 24.850000 	 3.340000
248 	 2 	0.000000 	 25.560000 	 3.340000
249 	 2 	0.000000 	 26.980000 	 3.340000
250 	 2 	1.229756 	 27.690000 	 3.340000
251 	 2 	1.229756 	 29.110000 	 3.340000
252 	 2 	0.000000 	 29.820000 	 3.340000
253 	 2 	0.000000 	 31.240000 	 3.340000
254 	 2 	1.229756 	 31.950000 	 3.340000
255 	 2 	1.229756 	 33.370000 	 3.340000
256 	 2 	0.000000 	 34.080000 	 3.340000
257 	 2 	0.000000 	 35.500000 	 3.340000
258 	 2 	1.229756 	 36.210000 	 3.340000
259 	 2 	1.229756 	 37.630000 	 3.340000
260 	 2 	0.000000 	 38.340000 	 3.340000
261 	 2 	0.000000 	 39.760000 	 3.340000
262 	 2 	1.229756 	 40.470000 	 3.340000
263 	 2 	1.229756 	 41.890000 	 3.340000
264 	 2 	0.000000 	 42.600000 	 3.340000
265 	 2 	0.000000 	 44.020000 	 3.340000
266 	 2 	1.229756 	 44.730000 	 3.340000
267 	 2 	1.229756 	 46.150000 	 3.340000
268 	 2 	0.000000 	 46.860000 	 3.340000
269 	 2 	0.000000 	 48.280000 	 3.340000
270 	 2 	1.229756 	 48.990000 	 3.340000
271 	 2 	1.229756 	 50.410000 	 3.340000
272 	 2 	0.000000 	 51.120000 	 3.340000
273 	 2 	0.000000 	 52.540000 	 3.340000
274 	 2 	1.229756 	 53.250000 	 3.340000
275 	 2 	1.229756 	 54.670000 	 3.340000
276 	 2 	0.000000 	 55.380000 	 3.340000
277 	 1 	0.000000 	 56.800000 	 3.340000
278 	 1 	1.229756 	 57.510000 	 3.340000
279 	 1 	1.229756 	 58.930000 	 3.340000
280 	 1 	0.000000 	 59.640000 	 3.340000
281 	 1 	2.459512 	 1.420000 	 3.340000
282 	 1 	3.689268 	 2.130000 	 3.340000
283 	 1 	3.689268 	 3.550000 	 3.340000
284 	 2 	2.459512 	 4.260000 	 3.340000
285 	 2 	2.459512 	 5.680000 	 3.340000
286 	 2 	3.689268 	 6.390000 	 3.340000
287 	 2 	3.689268 	 7.810000 	 3.340000
288 	 2 	2.459512 	 8.520000 	 3.340000
289 	 2 	2.459512 	 9.940000 	 3.340000
290 	 2 	3.689268 	 10.650000 	 3.340000
291 	 2 	3.689268 	 12.070000 	 3.340000
292 	 2 	2.459512 	 12.780000 	 3.340000
293 	 2 	2.459512 	 14.200000 	 3.340000
294 	 2 	3.689268 	 14.910000 	 3.340000
295 	 2 	3.689268 	 16.330000 	 3.340000
296 	 2 	2.459512 	 17.040000 	 3.340000
297 	 2 	2.459512 	 18.460000 	 3.340000
298 	 2 	3.689268 	 19.170000 	 3.340000
299 	 2 	3.689268 	 20.590000 	 3.340000
300 	 2 	2.459512 	 21.300000 	 3.340000
301 	 2 	2.459512 	 22.720000 	 3.340000
302 	 2 	3.689268 	 23.430000 	 3.340000
303 	 2 	3.689268 	 24.850000 	 3.340000
304 	 2 	2.459512 	 25.560000 	 3.340000
305 	 2 	2.459512 	 26.980000 	 3.340000
306 	 2 	3.689268 	 27.690000 	 3.340000
307 	 2 	3.689268 	 29.110000 	 3.340000
308 	 2 	2.459512 	 29.820000 	 3.340000
309 	 2 	2.459512 	 31.240000 	 3.340000
310 	 2 	3.689268 	 31.950000 	 3.340000
311 	 2 	3.689268 	 33.370000 	 3.340000
312 	 2 	2.459512 	 34.080000 	 3.340000
313 	 2 	2.459512 	 35.500000 	 3.340000
314 	 2 	3.689268 	 36.210000 	 3.340000
315 	 2 	3.689268 	 37.630000 	 3.340000
316 	 2 	2.459512 	 38.340000 	 3.340000
317 	 2 	2.459512 	 39.760000 	 3.340000
318 	 2 	3.689268 	 40.470000 	 3.340000
319 	 2 	3.689268 	 41.890000 	 3.340000
320 	 2 	2.459512 	 42.600000 	 3.340000
321 	 2 	2.459512 	 44.020000 	 3.340000
322 	 2 	3.689268 	 44.730000 	 3.340000
323 	 2 	3.689268 	 46.150000 	 3.340000
324 	 2 	2.459512 	 46.860000 	 3.340000
325 	 2 	2.459512 	 48.280000 	 3.340000
326 	 2 	3.689268 	 48.990000 	 3.340000
327 	 2 	3.689268 	 50.410000 	 3.340000
328 	 2 	2.459512 	 51.120000 	 3.340000
329 	 2 	2.459512 	 52.540000 	 3.340000
330 	 2 	3.689268 	 53.250000 	 3.340000
331 	 2 	3.689268 	 54.670000 	 3.340000
332 	 2 	2.459512 	 55.380000 	 3.340000
333 	 1 	2.459512 	 56.800000 	 3.340000
334 	 1 	3.689268 	 57.510000 	 3.340000
335 	 1 	3.689268 	 58.930000 	 3.340000
336 	 1 	2.459512 	 59.640000 	 3.340000
337 	 1 	4.919024 	 1.420000 	 3.340000
338 	 1 	6.148780 	 2.130000 	 3.340000
339 	 1 	6.148780 	 3.550000 	 3.340000
340 	 2 	4.919024 	 4.260000 	 3.340000
341 	 2 	4.919024 	 5.680000 	 3.340000
342 	 2 	6.148780 	 6.390000 	 3.340000
343 	 2 	6.148780 	 7.810000 	 3.340000
344 	 2 	4.919024 	 8.520000 	 3.340000
345 	 2 	4.919024 	 9.940000 	 3.340000
346 	 2 	6.148780 	 10.650000 	 3.340000
347 	 2 	6.148780 	 12.070000 	 3.340000
348 	 2 	4.919024 	 12.780000 	 3.340000
349 	 2 	4.919024 	 14.200000 	 3.340000
350 	 2 	6.148780 	 14.910000 	 3.340000
351 	 2 	6.148780 	 16.330000 	 3.340000
352 	 2 	4.919024 	 17.040000 	 3.340000
353 	 2 	4.919024 	 18.460000 	 3.340000
354 	 2 	6.148780 	 19.170000 	 3.340000
355 	 2 	6.148780 	 20.590000 	 3.340000
356 	 2 	4.919024 	 21.300000 	 3.340000
357 	 2 	4.919024 	 22.720000 	 3.340000
358 	 2 	6.148780 	 23.430000 	 3.340000
359 	 2 	6.148780 	 24.850000 	 3.340000
360 	 2 	4.919024 	 25.560000 	 3.340000
361 	 2 	4.919024 	 26.980000 	 3.340000
362 	 2 	6.148780 	 27.690000 	 3.340000
363 	 2 	6.148780 	 29.110000 	 3.340000
364 	 2 	4.919024 	 29.820000 	 3.340000
365 	 2 	4.919024 	 31.240000 	 3.340000
366 	 2 	6.148780 	 31.950000 	 3.340000
367 	 2 	6.148780 	 33.370000 	 3.340000
368 	 2 	4.919024 	 34.080000 	 3.340000
369 	 2 	4.919024 	 35.500000 	 3.340000
370 	 2 	6.148780 	 36.210000 	 3.340000
371 	 2 	6.148780 	 37.630000 	 3.340000
372 	 2 	4.919024 	 38.340000 	 3.340000
373 	 2 	4.919024 	 39.760000 	 3.340000
374 	 2 	6.148780 	 40.470000 	 3.340000
375 	 2 	6.148780 	 41.890000 	 3.340000
376 	 2 	4.919024 	 42.600000 	 3.340000
377 	 2 	4.919024 	 44.020000 	 3.340000
378 	 2 	6.148780 	 44.730000 	 3.340000
379 	 2 	6.148780 	 46.150000 	 3.340000
380 	 2 	4.919024 	 46.860000 	 3.340000
381 	 2 	4.919024 	 48.280000 	 3.340000
382 	 2 	6.148780 	 48.990000 	 3.340000
383 	 2 	6.148780 	 50.410000 	 3.340000
384 	 2 	4.919024 	 51.120000 	 3.340000
385 	 2 	4.919024 	 52.540000 	 3.340000
386 	 2 	6.148780 	 53.250000 	 3.340000
387 	 2 	6.148780 	 54.670000 	 3.340000
388 	 2 	4.919024 	 55.380000 	 3.340000
389 	 1 	4.919024 	 56.800000 	 3.340000
390 	 1 	6.148780 	 57.510000 	 3.340000
391 	 1 	6.148780 	 58.930000 	 3.340000
392 	 1 	4.919024 	 59.640000 	 3.340000
393 	 1 	7.378536 	 1.420000 	 3.340000
394 	 1 	8.608293 	 2.130000 	 3.340000
395 	 1 	8.608293 	 3.550000 	 3.340000
396 	 2 	7.378536 	 4.260000 	 3.340000
397 	 2 	7.378536 	 5.680000 	 3.340000
398 	 2 	8.608293 	 6.390000 	 3.340000
399 	 2 	8.608293 	 7.810000 	 3.340000
400 	 2 	7.378536 	 8.520000 	 3.340000
401 	 2 	7.378536 	 9.940000 	 3.340000
402 	 2 	8.608293 	 10.650000 	 3.340000
403 	 2 	8.608293 	 12.070000 	 3.340000
404 	 2 	7.378536 	 12.780000 	 3.340000
405 	 2 	7.378536 	 14.200000 	 3.340000
406 	 2 	8.608293 	 14.910000 	 3.340000
407 	 2 	8.608293 	 16.330000 	 3.340000
408 	 2 	7.378536 	 17.040000 	 3.340000
409 	 2 	7.378536 	 18.460000 	 3.340000
410 	 2 	8.608293 	 19.170000 	 3.340000
411 	 2 	8.608293 	 20.590000 	 3.340000
412 	 2 	7.378536 	 21.300000 	 3.340000
413 	 2 	7.378536 	 22.720000 	 3.340000
414 	 2 	8.608293 	 23.430000 	 3.340000
415 	 2 	8.608293 	 24.850000 	 3.340000
416 	 2 	7.378536 	 25.560000 	 3.340000
417 	 2 	7.378536 	 26.980000 	 3.340000
418 	 2 	8.608293 	 27.690000 	 3.340000
419 	 2 	8.608293 	 29.110000 	 3.340000
420 	 2 	7.378536 	 29.820000 	 3.340000
421 	 2 	7.378536 	 31.240000 	 3.340000
422 	 2 	8.608293 	 31.950000 	 3.340000
423 	 2 	8.608293 	 33.370000 	 3.340000
424 	 2 	7.378536 	 34.080000 	 3.340000
425 	 2 	7.378536 	 35.500000 	 3.340000
426 	 2 	8.608293 	 36.210000 	 3.340000
427 	 2 	8.608293 	 37.630000 	 3.340000
428 	 2 	7.378536 	 38.340000 	 3.340000
429 	 2 	7.378536 	 39.760000 	 3.340000
430 	 2 	8.608293 	 40.470000 	 3.340000
431 	 2 	8.608293 	 41.890000 	 3.340000
432 	 2 	7.378536 	 42.600000 	 3.340000
433 	 2 	7.378536 	 44.020000 	 3.340000
434 	 2 	8.608293 	 44.730000 	 3.340000
435 	 2 	8.608293 	 46.150000 	 3.340000
436 	 2 	7.378536 	 46.860000 	 3.340000
437 	 2 	7.378536 	 48.280000 	 3.340000
438 	 2 	8.608293 	 48.990000 	 3.340000
439 	 2 	8.608293 	 50.410000 	 3.340000
440 	 2 	7.378536 	 51.120000 	 3.340000
441 	 2 	7.378536 	 52.540000 	 3.340000
442 	 2 	8.608293 	 53.250000 	 3.340000
443 	 2 	8.608293 	 54.670000 	 3.340000
444 	 2 	7.378536 	 55.380000 	 3.340000
445 	 1 	7.378536 	 56.800000 	 3.340000
446 	 1 	8.608293 	 57.510000 	 3.340000
447 	 1 	8.608293 	 58.930000 	 3.340000
448 	 1 	7.378536 	 59.640000 	 3.340000
449 	 1 	0.000000 	 0.000000 	 6.680000
450 	 1 	1.229756 	 0.710000 	 6.680000
451 	 1 	1.229756 	 2.130000 	 6.680000
452 	 1 	0.000000 	 2.840000 	 6.680000
453 	 2 	0.000000 	 4.260000 	 6.680000
454 	 2 	1.229756 	 4.970000 	 6.680000
455 	 2 	1.229756 	 6.390000 	 6.680000
456 	 2 	0.000000 	 7.100000 	 6.680000
457 	 2 	0.000000 	 8.520000 	 6.680000
458 	 2 	1.229756 	 9.230000 	 6.680000
459 	 2 	1.229756 	 10.650000 	 6.680000
460 	 2 	0.000000 	 11.360000 	 6.680000
461 	 2 	0.000000 	 12.780000 	 6.680000
462 	 2 	1.229756 	 13.490000 	 6.680000
463 	 2 	1.229756 	 14.910000 	 6.680000
464 	 2 	0.000000 	 15.620000 	 6.680000
465 	 2 	0.000000 	 17.040000 	 6.680000
466 	 2 	1.229756 	 17.750000 	 6.680000
467 	 2 	1.229756 	 19.170000 	 6.680000
468 	 2 	0.000000 	 19.880000 	 6.680000
469 	 2 	0.000000 	 21.300000 	 6.680000
470 	 2 	1.229756 	 22.010000 	 6.680000
471 	 2 	1.229756 	 23.430000 	 6.680000
472 	 2 	0.000000 	 24.140000 	 6.680000
473 	 2 	0.000000 	 25.560000 	 6.680000
474 	 2 	1.229756 	 26.270000 	 6.680000
475 	 2 	1.229756 	 27.690000 	 6.680000
476 	 2 	0.000000 	 28.400000 	 6.680000
477 	 2 	0.000000 	 29.820000 	 6.680000
478 	 2 	1.229756 	 30.530000 	 6.680000
479 	 2 	1.229756 	 31.950000 	 6.680000
480 	 2 	0.000000 	 32.660000 	 6.680000
481 	 2 	0.000000 	 34.080000 	 6.680000
482 	 2 	1.229756 	 34.790000 	 6.680000
483 	 2 	1.229756 	 36.210000 	 6.680000
484 	 2 	0.000000 	 36.920000 	 6.680000
485 	 2 	0.000000 	 38.340000 	 6.680000
486 	 2 	1.229756 	 39.050000 	 6.680000
487 	 2 	1.229756 	 40.470000 	 6.680000
488 	 2 	0.000000 	 41.180000 	 6.680000
489 	 2 	0.000000 	 42.600000 	 6.680000
490 	 2 	1.229756 	 43.310000 	 6.680000
491 	 2 	1.229756 	 44.730000 	 6.680000
492 	 2 	0.000000 	 45.440000 	 6.680000
493 	 2 	0.000000 	 46.860000 	 6.680000
494 	 2 	1.229756 	 47.570000 	 6.680000
495 	 2 	1.229756 	 48.990000 	 6.680000
496 	 2 	0.000000 	 49.700000 	 6.680000
497 	 2 	0.000000 	 51.120000 	 6.680000
498 	 2 	1.229756 	 51.830000 	 6.680000
499 	 2 	1.229756 	 53.250000 	 6.680000
500 	 2 	0.000000 	 53.960000 	 6.680000
501 	 2 	0.000000 	 55.380000 	 6.680000
502 	 1 	1.229756 	 56.090000 	 6.680000
503 	 1 	1.229756 	 57.510000 	 6.680000
504 	 1 	0.000000 	 58.220000 	 6.680000
505 	 1 	2.459512 	 0.000000 	 6.680000
506 	 1 	3.689268 	 0.710000 	 6.680000
507 	 1 	3.689268 	 2.130000 	 6.680000
508 	 1 	2.459512 	 2.840000 	 6.680000
509 	 2 	2.459512 	 4.260000 	 6.680000
510 	 2 	3.689268 	 4.970000 	 6.680000
511 	 2 	3.689268 	 6.390000 	 6.680000
512 	 2 	2.459512 	 7.100000 	 6.680000
513 	 2 	2.459512 	 8.520000 	 6.680000
514 	 2 	3.689268 	 9.230000 	 6.680000
515 	 2 	3.689268 	 10.650000 	 6.680000
516 	 2 	2.459512 	 11.360000 	 6.680000
517 	 2 	2.459512 	 12.780000 	 6.680000
518 	 2 	3.689268 	 13.490000 	 6.680000
519 	 2 	3.689268 	 14.910000 	 6.680000
520 	 2 	2.459512 	 15.620000 	 6.680000
521 	 2 	2.459512 	 17.040000 	 6.680000
522 	 2 	3.689268 	 17.750000 	 6.680000
523 	 2 	3.689268 	 19.170000 	 6.680000
524 	 2 	2.459512 	 19.880000 	 6.680000
525 	 2 	2.459512 	 21.300000 	 6.680000
526 	 2 	3.689268 	 22.010000 	 6.680000
527 	 2 	3.689268 	 23.430000 	 6.680000
528 	 2 	2.459512 	 24.140000 	 6.680000
529 	 2 	2.459512 	 25.560000 	 6.680000
530 	 2 	3.689268 	 26.270000 	 6.680000
531 	 2 	3.689268 	 27.690000 	 6.680000
532 	 2 	2.459512 	 28.400000 	 6.680000
533 	 2 	2.459512 	 29.820000 	 6.680000
534 	 2 	3.689268 	 30.530000 	 6.680000
535 	 2 	3.689268 	 31.950000 	 6.680000
536 	 2 	2.459512 	 32.660000 	 6.680000
537 	 2 	2.459512 	 34.080000 	 6.680000
538 	 2 	3.689268 	 34.790000 	 6.680000
539 	 2 	3.689268 	 36.210000 	 6.680000
540 	 2 	2.459512 	 36.920000 	 6.680000
541 	 2 	2.459512 	 38.340000 	 6.680000
542 	 2 	3.689268 	 39.050000 	 6.680000
543 	 2 	3.689268 	 40.470000 	 6.680000
544 	 2 	2.459512 	 41.180000 	 6.680000
545 	 2 	2.459512 	 42.600000 	 6.680000
546 	 2 	3.689268 	 43.310000 	 6.680000
547 	 2 	3.689268 	 44.730000 	 6.680000
548 	 2 	2.459512 	 45.440000 	 6.680000
549 	 2 	2.459512 	 46.860000 	 6.680000
550 	 2 	3.689268 	 47.570000 	 6.680000
551 	 2 	3.689268 	 48.990000 	 6.680000
552 	 2 	2.459512 	 49.700000 	 6.680000
553 	 2 	2.459512 	 51.120000 	 6.680000
554 	 2 	3.689268 	 51.830000 	 6.680000
555 	 2 	3.689268 	 53.250000 	 6.680000
556 	 2 	2.459512 	 53.960000 	 6.680000
557 	 2 	2.459512 	 55.380000 	 6.680000
558 	 1 	3.689268 	 56.090000 	 6.680000
559 	 1 	3.689268 	 57.510000 	 6.680000
560 	 1 	2.459512 	 58.220000 	 6.680000
561 	 1 	4.919024 	 0.000000 	 6.680000
562 	 1 	6.148780 	 0.710000 	 6.680000
563 	 1 	6.148780 	 2.130000 	 6.680000
564 	 1 	4.919024 	 2.840000 	 6.680000
565 	 2 	4.919024 	 4.260000 	 6.680000
566 	 2 	6.148780 	 4.970000 	 6.680000
567 	 2 	6.148780 	 6.390000 	 6.680000
568 	 2 	4.919024 	 7.100000 	 6.680000
569 	 2 	4.919024 	 8.520000 	 6.680000
570 	 2 	6.148780 	 9.230000 	 6.680000
571 	 2 	6.148780 	 10.650000 	 6.680000
572 	 2 	4.919024 	 11.360000 	 6.680000
573 	 2 	4.919024 	 12.780000 	 6.680000
574 	 2 	6.148780 	 13.490000 	 6.680000
575 	 2 	6.148780 	 14.910000 	 6.680000
576 	 2 	4.919024 	 15.620000 	 6.680000
577 	 2 	4.919024 	 17.040000 	 6.680000
578 	 2 	6.148780 	 17.750000 	 6.680000
579 	 2 	6.148780 	 19.170000 	 6.680000
580 	 2 	4.919024 	 19.880000 	 6.680000
581 	 2 	4.919024 	 21.300000 	 6.680000
582 	 2 	6.148780 	 22.010000 	 6.680000
583 	 2 	6.148780 	 23.430000 	 6.680000
584 	 2 	4.919024 	 24.140000 	 6.680000
585 	 2 	4.919024 	 25.560000 	 6.680000
586 	 2 	6.148780 	 26.270000 	 6.680000
587 	 2 	6.148780 	 27.690000 	 6.680000
588 	 2 	4.919024 	 28.400000 	 6.680000
589 	 2 	4.919024 	 29.820000 	 6.680000
590 	 2 	6.148780 	 30.530000 	 6.680000
591 	 2 	6.148780 	 31.950000 	 6.680000
592 	 2 	4.919024 	 32.660000 	 6.680000
593 	 2 	4.919024 	 34.080000 	 6.680000
594 	 2 	6.148780 	 34.790000 	 6.680000
595 	 2 	6.148780 	 36.210000 	 6.680000
596 	 2 	4.919024 	 36.920000 	 6.680000
597 	 2 	4.919024 	 38.340000 	 6.680000
598 	 2 	6.148780 	 39.050000 	 6.680000
599 	 2 	6.148780 	 40.470000 	 6.680000
600 	 2 	4.919024 	 41.180000 	 6.680000
601 	 2 	4.919024 	 42.600000 	 6.680000
602 	 2 	6.148780 	 43.310000 	 6.680000
603 	 2 	6.148780 	 44.730000 	 6.680000
604 	 2 	4.919024 	 45.440000 	 6.680000
605 	 2 	4.919024 	 46.860000 	 6.680000
606 	 2 	6.148780 	 47.570000 	 6.680000
607 	 2 	6.148780 	 48.990000 	 6.680000
608 	 2 	4.919024 	 49.700000 	 6.680000
609 	 2 	4.919024 	 51.120000 	 6.680000
610 	 2 	6.148780 	 51.830000 	 6.680000
611 	 2 	6.148780 	 53.250000 	 6.680000
612 	 2 	4.919024 	 53.960000 	 6.680000
613 	 2 	4.919024 	 55.380000 	 6.680000
614 	 1 	6.148780 	 56.090000 	 6.680000
615 	 1 	6.148780 	 57.510000 	 6.680000
616 	 1 	4.919024 	 58.220000 	 6.680000
617 	 1 	7.378536 	 0.000000 	 6.680000
618 	 1 	8.608293 	 0.710000 	 6.680000
619 	 1 	8.608293 	 2.130000 	 6.680000
620 	 1 	7.378536 	 2.840000 	 6.680000
621 	 2 	7.378536 	 4.260000 	 6.680000
622 	 2 	8.608293 	 4.970000 	 6.680000
623 	 2 	8.608293 	 6.390000 	 6.680000
624 	 2 	7.378536 	 7.100000 	 6.680000
625 	 2 	7.378536 	 8.520000 	 6.680000
626 	 2 	8.608293 	 9.230000 	 6.680000
627 	 2 	8.608293 	 10.650000 	 6.680000
628 	 2 	7.378536 	 11.360000 	 6.680000
629 	 2 	7.378536 	 12.780000 	 6.680000
630 	 2 	8.608293 	 13.490000 	 6.680000
631 	 2 	8.608293 	 14.910000 	 6.680000
632 	 2 	7.378536 	 15.620000 	 6.680000
633 	 2 	7.378536 	 17.040000 	 6.680000
634 	 2 	8.608293 	 17.750000 	 6.680000
635 	 2 	8.608293 	 19.170000 	 6.680000
636 	 2 	7.378536 	 19.880000 	 6.680000
637 	 2 	7.378536 	 21.300000 	 6.680000
638 	 2 	8.608293 	 22.010000 	 6.680000
639 	 2 	8.608293 	 23.430000 	 6.680000
640 	 2 	7.378536 	 24.140000 	 6.680000
641 	 2 	7.378536 	 25.560000 	 6.680000
642 	 2 	8.608293 	 26.270000 	 6.680000
643 	 2 	8.608293 	 27.690000 	 6.680000
644 	 2 	7.378536 	 28.400000 	 6.680000
645 	 2 	7.378536 	 29.820000 	 6.680000
646 	 2 	8.608293 	 30.530000 	 6.680000
647 	 2 	8.608293 	 31.950000 	 6.680000
648 	 2 	7.378536 	 32.660000 	 6.680000
649 	 2 	7.378536 	 34.080000 	 6.680000
650 	 2 	8.608293 	 34.790000 	 6.680000
651 	 2 	8.608293 	 36.210000 	 6.680000
652 	 2 	7.378536 	 36.920000 	 6.680000
653 	 2 	7.378536 	 38.340000 	 6.680000
654 	 2 	8.608293 	 39.050000 	 6.680000
655 	 2 	8.608293 	 40.470000 	 6.680000
656 	 2 	7.378536 	 41.180000 	 6.680000
657 	 2 	7.378536 	 42.600000 	 6.680000
658 	 2 	8.608293 	 43.310000 	 6.680000
659 	 2 	8.608293 	 44.730000 	 6.680000
660 	 2 	7.378536 	 45.440000 	 6.680000
661 	 2 	7.378536 	 46.860000 	 6.680000
662 	 2 	8.608293 	 47.570000 	 6.680000
663 	 2 	8.608293 	 48.990000 	 6.680000
664 	 2 	7.378536 	 49.700000 	 6.680000
665 	 2 	7.378536 	 51.120000 	 6.680000
666 	 2 	8.608293 	 51.830000 	 6.680000
667 	 2 	8.608293 	 53.250000 	 6.680000
668 	 2 	7.378536 	 53.960000 	 6.680000
669 	 2 	7.378536 	 55.380000 	 6.680000
670 	 1 	8.608293 	 56.090000 	 6.680000
671 	 1 	8.608293 	 57.510000 	 6.680000
672 	 1 	7.378536 	 58.220000 	 6.680000
673 	 1 	0.000000 	 1.420000 	 10.020000
674 	 1 	1.229756 	 2.130000 	 10.020000
675 	 1 	1.229756 	 3.550000 	 10.020000
676 	 2 	0.000000 	 4.260000 	 10.020000
677 	 2 	0.000000 	 5.680000 	 10.020000
678 	 2 	1.229756 	 6.390000 	 10.020000
679 	 2 	1.229756 	 7.810000 	 10.020000
680 	 2 	0.000000 	 8.520000 	 10.020000
681 	 2 	0.000000 	 9.940000 	 10.020000
682 	 2 	1.229756 	 10.650000 	 10.020000
683 	 2 	1.229756 	 12.070000 	 10.020000
684 	 2 	0.000000 	 12.780000 	 10.020000
685 	 2 	0.000000 	 14.200000 	 10.020000
686 	 2 	1.229756 	 14.910000 	 10.020000
687 	 2 	1.229756 	 16.330000 	 10.020000
688 	 2 	0.000000 	 17.040000 	 10.020000
689 	 2 	0.000000 	 18.460000 	 10.020000
690 	 2 	1.229756 	 19.170000 	 10.020000
691 	 2 	1.229756 	 20.590000 	 10.020000
692 	 2 	0.000000 	 21.300000 	 10.020000
693 	 2 	0.000000 	 22.720000 	 10.020000
694 	 2 	1.229756 	 23.430000 	 10.020000
695 	 2 	1.229756 	 24.850000 	 10.020000
696 	 2 	0.000000 	 25.560000 	 10.020000
697 	 2 	0.000000 	 26.980000 	 10.020000
698 	 2 	1.229756 	 27.690000 	 10.020000
699 	 2 	1.229756 	 29.110000 	 10.020000
700 	 2 	0.000000 	 29.820000 	 10.020000
701 	 2 	0.000000 	 31.240000 	 10.020000
702 	 2 	1.229756 	 31.950000 	 10.020000
703 	 2 	1.229756 	 33.370000 	 10.020000
704 	 2 	0.000000 	 34.080000 	 10.020000
705 	 2 	0.000000 	 35.500000 	 10.020000
706 	 2 	1.229756 	 36.210000 	 10.020000
707 	 2 	1.229756 	 37.630000 	 10.020000
708 	 2 	0.000000 	 38.340000 	 10.020000
709 	 2 	0.000000 	 39.760000 	 10.020000
710 	 2 	1.229756 	 40.470000 	 10.020000
711 	 2 	1.229756 	 41.890000 	 10.020000
712 	 2 	0.000000 	 42.600000 	 10.020000
713 	 2 	0.000000 	 44.020000 	 10.020000
714 	 2 	1.229756 	 44.730000 	 10.020000
715 	 2 	1.229756 	 46.150000 	 10.020000
716 	 2 	0.000000 	 46.860000 	 10.020000
717 	 2 	0.000000 	 48.280000 	 10.020000
718 	 2 	1.229756 	 48.990000 	 10.020000
719 	 2 	1.229756 	 50.410000 	 10.020000
720 	 2 	0.000000 	 51.120000 	 10.020000
721 	 2 	0.000000 	 52.540000 	 10.020000
722 	 2 	1.229756 	 53.250000 	 10.020000
723 	 2 	1.229756 	 54.670000 	 10.020000
724 	 2 	0.000000 	 55.380000 	 10.020000
725 	 1 	0.000000 	 56.800000 	 10.020000
726 	 1 	1.229756 	 57.510000 	 10.020000
727 	 1 	1.229756 	 58.930000 	 10.020000
728 	 1 	0.000000 	 59.640000 	 10.020000
729 	 1 	2.459512 	 1.420000 	 10.020000
730 	 1 	3.689268 	 2.130000 	 10.020000