ITEM: TIMESTEP
0
ITEM: NUMBER OF ATOMS
3840
ITEM: BOX BOUNDS pp pp pp
-5.0 55.0
-5.0 25.0
-5.0 38.4000015
ITEM: ATOMS id type x y z
1 1 4.2600002 2.459512 3.3399999
2 1 4.9699998 3.6892681 3.3399999
3 1 6.3899999 3.6892681 3.3399999
4 1 7.0999999 2.459512 3.3399999
5 1 8.5200005 2.459512 3.3399999
6 1 9.2299996 3.6892681 3.3399999
7 1 10.6499996 3.6892681 3.3399999
8 1 11.3599997 2.459512 3.3399999
9 1 12.7799998 2.459512 3.3399999
10 1 13.4899998 3.6892681 3.3399999
11 1 14.9099998 3.6892681 3.3399999
12 1 15.6199999 2.459512 3.3399999
13 1 17.0400009 2.459512 3.3399999
14 1 17.75 3.6892681 3.3399999
15 1 19.1700001 3.6892681 3.3399999
16 1 19.8799992 2.459512 3.3399999
17 1 21.2999992 2.459512 3.3399999
18 1 22.0100002 3.6892681 3.3399999
19 1 23.4300003 3.6892681 3.3399999
20 1 24.1399994 2.459512 3.3399999
21 1 25.5599995 2.459512 3.3399999
22 1 26.2700005 3.6892681 3.3399999
23 1 27.6900006 3.6892681 3.3399999
24 1 28.3999996 2.459512 3.3399999
25 1 29.8199997 2.459512 3.3399999
26 1 30.5300007 3.6892681 3.3399999
27 1 31.9500008 3.6892681 3.3399999
28 1 32.6599999 2.459512 3.3399999
29 1 34.0800018 2.459512 3.3399999
30 1 34.7900009 3.6892681 3.3399999
31 1 36.2099991 3.6892681 3.3399999
32 1 36.9199982 2.459512 3.3399999
33 1 38.3400002 2.459512 3.3399999
34 1 39.0499992 3.6892681 3.3399999
35 1 40.4700012 3.6892681 3.3399999
36 1 41.1800003 2.459512 3.3399999
37 1 42.5999985 2.459512 3.3399999
38 1 43.3100014 3.6892681 3.3399999
39 1 44.7299996 3.6892681 3.3399999
40 1 45.4399987 2.459512 3.3399999
41 1 46.8600006 2.459512 3.3399999
42 1 47.5699997 3.6892681 3.3399999
43 1 48.9900018 3.6892681 3.3399999
44 1 49.7000008 2.459512 3.3399999
45 1 51.1199989 2.459512 3.3399999
46 1 51.8300019 3.6892681 3.3399999
47 1 53.25 3.6892681 3.3399999
48 1 53.9599992 2.459512 3.3399999
49 1 4.2600002 4.919024 3.3399999
50 1 4.9699998 6.1487799 3.3399999
51 1 6.3899999 6.1487799 3.3399999
52 1 7.0999999 4.919024 3.3399999
53 1 8.5200005 4.919024 3.3399999
54 1 9.2299996 6.1487799 3.3399999
55 1 10.6499996 6.1487799 3.3399999
56 1 11.3599997 4.919024 3.3399999
57 1 12.7799998 4.919024 3.3399999
58 1 13.4899998 6.1487799 3.3399999
59 1 14.9099998 6.1487799 3.3399999
60 1 15.6199999 4.919024 3.3399999
61 1 17.0400009 4.919024 3.3399999
62 1 17.75 6.1487799 3.3399999
63 1 19.1700001 6.1487799 3.3399999
64 1 19.8799992 4.919024 3.3399999
65 1 21.2999992 4.919024 3.3399999
66 1 22.0100002 6.1487799 3.3399999
67 1 23.4300003 6.1487799 3.3399999
68 1 24.1399994 4.919024 3.3399999
69 1 25.5599995 4.919024 3.3399999
70 1 26.2700005 6.1487799 3.3399999
71 1 27.6900006 6.1487799 3.3399999
72 1 28.3999996 4.919024 3.3399999
73 1 29.8199997 4.919024 3.3399999
74 1 30.5300007 6.1487799 3.3399999
75 1 31.9500008 6.1487799 3.3399999
76 1 32.6599999 4.919024 3.3399999
77 1 34.0800018 4.919024 3.3399999
78 1 34.7900009 6.1487799 3.3399999
79 1 36.2099991 6.1487799 3.3399999
80 1 36.9199982 4.919024 3.3399999
81 1 38.3400002 4.919024 3.3399999
82 1 39.0499992 6.1487799 3.3399999
83 1 40.4700012 6.1487799 3.3399999
84 1 41.1800003 4.919024 3.3399999
85 1 42.5999985 4.919024 3.3399999
86 1 43.3100014 6.1487799 3.3399999
87 1 44.7299996 6.1487799 3.3399999
88 1 45.4399987 4.919024 3.3399999
89 1 46.8600006 4.919024 3.3399999
90 1 47.5699997 6.1487799 3.3399999
91 1 48.9900018 6.1487799 3.3399999
92 1 49.7000008 4.919024 3.3399999
93 1 51.1199989 4.919024 3.3399999
94 1 51.8300019 6.1487799 3.3399999
95 1 53.25 6.1487799 3.3399999
96 1 53.9599992 4.919024 3.3399999
97 1 4.2600002 7.3785362 3.3399999
98 1 4.9699998 8.6082926 3.3399999
99 1 6.3899999 8.6082926 3.3399999
100 1 7.0999999 7.3785362 3.3399999
101 1 8.5200005 7.3785362 3.3399999
102 1 9.2299996 8.6082926 3.3399999
103 1 10.6499996 8.6082926 3.3399999
104 1 11.3599997 7.3785362 3.3399999
105 1 12.7799998 7.3785362 3.3399999
106 1 13.4899998 8.6082926 3.3399999
107 1 14.9099998 8.6082926 3.3399999
108 1 15.6199999 7.3785362 3.3399999
109 1 17.0400009 7.3785362 3.3399999
110 1 17.75 8.6082926 3.3399999
111 1 19.1700001 8.6082926 3.3399999
112 1 19.8799992 7.3785362 3.3399999
113 1 21.2999992 7.3785362 3.3399999
114 1 22.0100002 8.6082926 3.3399999
115 1 23.4300003 8.6082926 3.3399999
116 1 24.1399994 7.3785362 3.3399999
117 1 25.5599995 7.3785362 3.3399999
118 1 26.2700005 8.6082926 3.3399999
119 1 27.6900006 8.6082926 3.3399999
120 1 28.3999996 7.3785362 3.3399999
121 1 29.8199997 7.3785362 3.3399999
122 1 30.5300007 8.6082926 3.3399999
123 1 31.9500008 8.6082926 3.3399999
124 1 32.6599999 7.3785362 3.3399999
125 1 34.0800018 7.3785362 3.3399999
126 1 34.7900009 8.6082926 3.3399999
127 1 36.2099991 8.6082926 3.3399999
128 1 36.9199982 7.3785362 3.3399999
129 1 38.3400002 7.3785362 3.3399999
130 1 39.0499992 8.6082926 3.3399999
131 1 40.4700012 8.6082926 3.3399999
132 1 41.1800003 7.3785362 3.3399999
133 1 42.5999985 7.3785362 3.3399999
134 1 43.3100014 8.6082926 3.3399999
135 1 44.7299996 8.6082926 3.3399999
136 1 45.4399987 7.3785362 3.3399999
137 1 46.8600006 7.3785362 3.3399999
138 1 47.5699997 8.6082926 3.3399999
139 1 48.9900018 8.6082926 3.3399999
140 1 49.7000008 7.3785362 3.3399999
141 1 51.1199989 7.3785362 3.3399999
142 1 51.8300019 8.6082926 3.3399999
143 1 53.25 8.6082926 3.3399999
144 1 53.9599992 7.3785362 3.3399999
145 1 4.2600002 9.838049 3.3399999
146 1 4.9699998 11.0678053 3.3399999
147 1 6.3899999 11.0678053 3.3399999
148 1 7.0999999 9.838049 3.3399999
149 1 8.5200005 9.838049 3.3399999
150 1 9.2299996 11.0678053 3.3399999
151 1 10.6499996 11.0678053 3.3399999
152 1 11.3599997 9.838049 3.3399999
153 1 12.7799998 9.838049 3.3399999
154 1 13.4899998 11.0678053 3.3399999
155 1 14.9099998 11.0678053 3.3399999
156 1 15.6199999 9.838049 3.3399999
157 1 17.0400009 9.838049 3.3399999
158 1 17.75 11.0678053 3.3399999
159 1 19.1700001 11.0678053 3.3399999
160 1 19.8799992 9.838049 3.3399999
161 1 21.2999992 9.838049 3.3399999
162 1 22.0100002 11.0678053 3.3399999
163 1 23.4300003 11.0678053 3.3399999
164 1 24.1399994 9.838049 3.3399999
165 1 25.5599995 9.838049 3.3399999
166 1 26.2700005 11.0678053 3.3399999
167 1 27.6900006 11.0678053 3.3399999
168 1 28.3999996 9.838049 3.3399999
169 1 29.8199997 9.838049 3.3399999
170 1 30.5300007 11.0678053 3.3399999
171 1 31.9500008 11.0678053 3.3399999
172 1 32.6599999 9.838049 3.3399999
173 1 34.0800018 9.838049 3.3399999
174 1 34.7900009 11.0678053 3.3399999
175 1 36.2099991 11.0678053 3.3399999
176 1 36.9199982 9.838049 3.3399999
177 1 38.3400002 9.838049 3.3399999
178 1 39.0499992 11.0678053 3.3399999
179 1 40.4700012 11.0678053 3.3399999
180 1 41.1800003 9.838049 3.3399999
181 1 42.5999985 9.838049 3.3399999
182 1 43.3100014 11.0678053 3.3399999
183 1 44.7299996 11.0678053 3.3399999
184 1 45.4399987 9.838049 3.3399999
185 1 46.8600006 9.838049 3.3399999
186 1 47.5699997 11.0678053 3.3399999
187 1 48.9900018 11.0678053 3.3399999
188 1 49.7000008 9.838049 3.3399999
189 1 51.1199989 9.838049 3.3399999
190 1 51.8300019 11.0678053 3.3399999
191 1 53.25 11.0678053 3.3399999
192 1 53.9599992 9.838049 3.3399999
193 1 4.2600002 12.2975607 3.3399999
194 1 4.9699998 13.5273171 3.3399999
195 1 6.3899999 13.5273171 3.3399999
196 1 7.0999999 12.2975607 3.3399999
197 1 8.5200005 12.2975607 3.3399999
198 1 9.2299996 13.5273171 3.3399999
199 1 10.6499996 13.5273171 3.3399999
200 1 11.3599997 12.2975607 3.3399999
201 1 12.7799998 12.2975607 3.3399999
202 1 13.4899998 13.5273171 3.3399999
203 1 14.9099998 13.5273171 3.3399999
204 1 15.6199999 12.2975607 3.3399999
205 1 17.0400009 12.2975607 3.3399999
206 1 17.75 13.5273171 3.3399999
207 1 19.1700001 13.5273171 3.3399999
208 1 19.8799992 12.2975607 3.3399999
209 1 21.2999992 12.2975607 3.3399999
210 1 22.0100002 13.5273171 3.3399999
211 1 23.4300003 13.5273171 3.3399999
212 1 24.1399994 12.2975607 3.3399999
213 1 25.5599995 12.2975607 3.3399999
214 1 26.2700005 13.5273171 3.3399999
215 1 27.6900006 13.5273171 3.3399999
216 1 28.3999996 12.2975607 3.3399999
217 1 29.8199997 12.2975607 3.3399999
218 1 30.5300007 13.5273171 3.3399999
219 1 31.9500008 13.5273171 3.3399999
220 1 32.6599999 12.2975607 3.3399999
221 1 34.0800018 12.2975607 3.3399999
222 1 34.7900009 13.5273171 3.3399999
223 1 36.2099991 13.5273171 3.3399999
224 1 36.9199982 12.2975607 3.3399999
225 1 38.3400002 12.2975607 3.3399999
226 1 39.0499992 13.5273171 3.3399999
227 1 40.4700012 13.5273171 3.3399999
228 1 41.1800003 12.2975607 3.3399999
229 1 42.5999985 12.2975607 3.3399999
230 1 43.3100014 13.5273171 3.3399999
231 1 44.7299996 13.5273171 3.3399999
232 1 45.4399987 12.2975607 3.3399999
233 1 46.8600006 12.2975607 3.3399999
234 1 47.5699997 13.5273171 3.3399999
235 1 48.9900018 13.5273171 3.3399999
236 1 49.7000008 12.2975607 3.3399999
237 1 51.1199989 12.2975607 3.3399999
238 1 51.8300019 13.5273171 3.3399999
239 1 53.25 13.5273171 3.3399999
240 1 53.9599992 12.2975607 3.3399999
241 1 4.2600002 14.7570734 3.3399999
242 1 4.9699998 15.9868288 3.3399999
243 1 6.3899999 15.9868288 3.3399999
244 1 7.0999999 14.7570734 3.3399999
245 1 8.5200005 14.7570734 3.3399999
246 1 9.2299996 15.9868288 3.3399999
247 1 10.6499996 15.9868288 3.3399999
248 1 11.3599997 14.7570734 3.3399999
249 1 12.7799998 14.7570734 3.3399999
250 1 13.4899998 15.9868288 3.3399999
251 1 14.9099998 15.9868288 3.3399999
252 1 15.6199999 14.7570734 3.3399999
253 1 17.0400009 14.7570734 3.3399999
254 1 17.75 15.9868288 3.3399999
255 1 19.1700001 15.9868288 3.3399999
256 1 19.8799992 14.7570734 3.3399999
257 1 21.2999992 14.7570734 3.3399999
258 1 22.0100002 15.9868288 3.3399999
259 1 23.4300003 15.9868288 3.3399999
260 1 24.1399994 14.7570734 3.3399999
261 1 25.5599995 14.7570734 3.3399999
262 1 26.2700005 15.9868288 3.3399999
263 1 27.6900006 15.9868288 3.3399999
264 1 28.3999996 14.7570734 3.3399999
265 1 29.8199997 14.7570734 3.3399999
266 1 30.5300007 15.9868288 3.3399999
267 1 31.9500008 15.9868288 3.3399999
268 1 32.6599999 14.7570734 3.3399999
269 1 34.0800018 14.7570734 3.3399999
270 1 34.7900009 15.9868288 3.3399999
271 1 36.2099991 15.9868288 3.3399999
272 1 36.9199982 14.7570734 3.3399999
273 1 38.3400002 14.7570734 3.3399999
274 1 39.0499992 15.9868288 3.3399999
275 1 40.4700012 15.9868288 3.3399999
276 1 41.1800003 14.7570734 3.3399999
277 1 42.5999985 14.7570734 3.3399999
278 1 43.3100014 15.9868288 3.3399999
279 1 44.7299996 15.9868288 3.3399999
280 1 45.4399987 14.7570734 3.3399999
281 1 46.8600006 14.7570734 3.3399999
282 1 47.5699997 15.9868288 3.3399999
283 1 48.9900018 15.9868288 3.3399999
284 1 49.7000008 14.7570734 3.3399999
285 1 51.1199989 14.7570734 3.3399999
286 1 51.8300019 15.9868288 3.3399999
287 1 53.25 15.9868288 3.3399999
288 1 53.9599992 14.7570734 3.3399999
289 1 4.2600002 17.2165852 3.3399999
290 1 4.9699998 18.4463406 3.3399999
291 1 6.3899999 18.4463406 3.3399999
292 1 7.0999999 17.2165852 3.3399999
293 1 8.5200005 17.2165852 3.3399999
294 1 9.2299996 18.4463406 3.3399999
295 1 10.6499996 18.4463406 3.3399999
296 1 11.3599997 17.2165852 3.3399999
297 1 12.7799998 17.2165852 3.3399999
298 1 13.4899998 18.4463406 3.3399999
299 1 14.9099998 18.4463406 3.3399999
300 1 15.6199999 17.2165852 3.3399999
301 1 17.0400009 17.2165852 3.3399999
302 1 17.75 18.4463406 3.3399999
303 1 19.1700001 18.4463406 3.3399999
304 1 19.8799992 17.2165852 3.3399999
305 1 21.2999992 17.2165852 3.3399999
306 1 22.0100002 18.4463406 3.3399999
307 1 23.4300003 18.4463406 3.3399999
308 1 24.1399994 17.2165852 3.3399999
309 1 25.5599995 17.2165852 3.3399999
310 1 26.2700005 18.4463406 3.3399999
311 1 27.6900006 18.4463406 3.3399999
312 1 28.3999996 17.2165852 3.3399999
313 1 29.8199997 17.2165852 3.3399999
314 1 30.5300007 18.4463406 3.3399999
315 1 31.9500008 18.4463406 3.3399999
316 1 32.6599999 17.2165852 3.3399999
317 1 34.0800018 17.2165852 3.3399999
318 1 34.7900009 18.4463406 3.3399999
319 1 36.2099991 18.4463406 3.3399999
320 1 36.9199982 17.2165852 3.3399999
321 1 38.3400002 17.2165852 3.3399999
322 1 39.0499992 18.4463406 3.3399999
323 1 40.4700012 18.4463406 3.3399999
324 1 41.1800003 17.2165852 3.3399999
325 1 42.5999985 17.2165852 3.3399999
326 1 43.3100014 18.4463406 3.3399999
327 1 44.7299996 18.4463406 3.3399999
328 1 45.4399987 17.2165852 3.3399999
329 1 46.8600006 17.2165852 3.3399999
330 1 47.5699997 18.4463406 3.3399999
331 1 48.9900018 18.4463406 3.3399999
332 1 49.7000008 17.2165852 3.3399999
333 1 51.1199989 17.2165852 3.3399999
334 1 51.8300019 18.4463406 3.3399999
335 1 53.25 18.4463406 3.3399999
336 1 53.9599992 17.2165852 3.3399999
337 1 4.2600002 19.6760979 3.3399999
338 1 4.9699998 20.9058534 3.3399999
339 1 6.3899999 20.9058534 3.3399999
340 1 7.0999999 19.6760979 3.3399999
341 1 8.5200005 19.6760979 3.3399999
342 1 9.2299996 20.9058534 3.3399999
343 1 10.6499996 20.9058534 3.3399999
344 1 11.3599997 19.6760979 3.3399999
345 1 12.7799998 19.6760979 3.3399999
346 1 13.4899998 20.9058534 3.3399999
347 1 14.9099998 20.9058534 3.3399999
348 1 15.6199999 19.6760979 3.3399999
349 1 17.0400009 19.6760979 3.3399999
350 1 17.75 20.9058534 3.3399999
351 1 19.1700001 20.9058534 3.3399999
352 1 19.8799992 19.6760979 3.3399999
353 1 21.2999992 19.6760979 3.3399999
354 1 22.0100002 20.9058534 3.3399999
355 1 23.4300003 20.9058534 3.3399999
356 1 24.1399994 19.6760979 3.3399999
357 1 25.5599995 19.6760979 3.3399999
358 1 26.2700005 20.9058534 3.3399999
359 1 27.6900006 20.9058534 3.3399999
360 1 28.3999996 19.6760979 3.3399999
361 1 29.8199997 19.6760979 3.3399999
362 1 30.5300007 20.9058534 3.3399999
363 1 31.9500008 20.9058534 3.3399999
364 1 32.6599999 19.6760979 3.3399999
365 1 34.0800018 19.6760979 3.3399999
366 1 34.7900009 20.9058534 3.3399999
367 1 36.2099991 20.9058534 3.3399999
368 1 36.9199982 19.6760979 3.3399999
369 1 38.3400002 19.6760979 3.3399999
370 1 39.0499992 20.9058534 3.3399999
371 1 40.4700012 20.9058534 3.3399999
372 1 41.1800003 19.6760979 3.3399999
373 1 42.5999985 19.6760979 3.3399999
374 1 43.3100014 20.9058534 3.3399999
375 1 44.7299996 20.9058534 3.3399999
376 1 45.4399987 19.6760979 3.3399999
377 1 46.8600006 19.6760979 3.3399999
378 1 47.5699997 20.9058534 3.3399999
379 1 48.9900018 20.9058534 3.3399999
380 1 49.7000008 19.6760979 3.3399999
381 1 51.1199989 19.6760979 3.3399999
382 1 51.8300019 20.9058534 3.3399999
383 1 53.25 20.9058534 3.3399999
384 1 53.9599992 19.6760979 3.3399999
385 2 5.6799999 2.459512 6.6799999
386 2 6.3899999 3.6892681 6.6799999
387 2 7.81 3.6892681 6.6799999
388 2 8.5200005 2.459512 6.6799999
389 2 9.9399996 2.459512 6.6799999
390 2 10.6499996 3.6892681 6.6799999
391 2 12.0699997 3.6892681 6.6799999
392 2 12.7799998 2.459512 6.6799999
393 2 14.1999998 2.459512 6.6799999
394 2 14.9099998 3.6892681 6.6799999
395 2 16.3299999 3.6892681 6.6799999
396 2 17.0400009 2.459512 6.6799999
397 2 18.4599991 2.459512 6.6799999
398 2 19.1700001 3.6892681 6.6799999
399 2 20.5900002 3.6892681 6.6799999
400 2 21.2999992 2.459512 6.6799999
401 2 22.7199993 2.459512 6.6799999
402 2 23.4300003 3.6892681 6.6799999
403 2 24.8500004 3.6892681 6.6799999
404 2 25.5599995 2.459512 6.6799999
405 2 26.9799996 2.459512 6.6799999
406 2 27.6900006 3.6892681 6.6799999
407 2 29.1100006 3.6892681 6.6799999
408 2 29.8199997 2.459512 6.6799999
409 2 31.2399998 2.459512 6.6799999
410 2 31.9500008 3.6892681 6.6799999
411 2 33.3699989 3.6892681 6.6799999
412 2 34.0800018 2.459512 6.6799999
413 2 35.5 2.459512 6.6799999
414 2 36.2099991 3.6892681 6.6799999
415 2 37.6300011 3.6892681 6.6799999
416 2 38.3400002 2.459512 6.6799999
417 2 39.7599983 2.459512 6.6799999
418 2 40.4700012 3.6892681 6.6799999
419 2 41.8899994 3.6892681 6.6799999
420 2 42.5999985 2.459512 6.6799999
421 2 44.0200005 2.459512 6.6799999
422 2 44.7299996 3.6892681 6.6799999
423 2 46.1500015 3.6892681 6.6799999
424 2 46.8600006 2.459512 6.6799999
425 2 48.2799988 2.459512 6.6799999
426 2 48.9900018 3.6892681 6.6799999
427 2 50.4099999 3.6892681 6.6799999
428 2 51.1199989 2.459512 6.6799999
429 2 52.5400009 2.459512 6.6799999
430 2 53.25 3.6892681 6.6799999
431 2 54.6699982 3.6892681 6.6799999
432 2 55.3800011 2.459512 6.6799999
433 2 5.6799999 4.919024 6.6799999
434 2 6.3899999 6.1487799 6.6799999
435 2 7.81 6.1487799 6.6799999
436 2 8.5200005 4.919024 6.6799999
437 2 9.9399996 4.919024 6.6799999
438 2 10.6499996 6.1487799 6.6799999
439 2 12.0699997 6.1487799 6.6799999
440 2 12.7799998 4.919024 6.6799999
441 2 14.1999998 4.919024 6.6799999
442 2 14.9099998 6.1487799 6.6799999
443 2 16.3299999 6.1487799 6.6799999
444 2 17.0400009 4.919024 6.6799999
445 2 18.4599991 4.919024 6.6799999
446 2 19.1700001 6.1487799 6.6799999
447 2 20.5900002 6.1487799 6.6799999
448 2 21.2999992 4.919024 6.6799999
449 2 22.7199993 4.919024 6.6799999
450 2 23.4300003 6.1487799 6.6799999
451 2 24.8500004 6.1487799 6.6799999
452 2 25.5599995 4.919024 6.6799999
453 2 26.9799996 4.919024 6.6799999
454 2 27.6900006 6.1487799 6.6799999
455 2 29.1100006 6.1487799 6.6799999
456 2 29.8199997 4.919024 6.6799999
457 2 31.2399998 4.919024 6.6799999
458 2 31.9500008 6.1487799 6.6799999
459 2 33.3699989 6.1487799 6.6799999
460 2 34.0800018 4.919024 6.6799999
461 2 35.5 4.919024 6.6799999
462 2 36.2099991 6.1487799 6.6799999
463 2 37.6300011 6.1487799 6.6799999
464 2 38.3400002 4.919024 6.6799999
465 2 39.7599983 4.919024 6.6799999
466 2 40.4700012 6.1487799 6.6799999
467 2 41.8899994 6.1487799 6.6799999
468 2 42.5999985 4.919024 6.6799999
469 2 44.0200005 4.919024 6.6799999
470 2 44.7299996 6.1487799 6.6799999
471 2 46.1500015 6.1487799 6.6799999
472 2 46.8600006 4.919024 6.6799999
473 2 48.2799988 4.919024 6.6799999
474 2 48.9900018 6.1487799 6.6799999
475 2 50.4099999 6.1487799 6.6799999
476 2 51.1199989 4.919024 6.6799999
477 2 52.5400009 4.919024 6.6799999
478 2 53.25 6.1487799 6.6799999
479 2 54.6699982 6.1487799 6.6799999
480 2 55.3800011 4.919024 6.6799999
481 2 5.6799999 7.3785362 6.6799999
482 2 6.3899999 8.6082926 6.6799999
483 2 7.81 8.6082926 6.6799999
484 2 8.5200005 7.3785362 6.6799999
485 2 9.9399996 7.3785362 6.6799999
486 2 10.6499996 8.6082926 6.6799999
487 2 12.0699997 8.6082926 6.6799999
488 2 12.7799998 7.3785362 6.6799999
489 2 14.1999998 7.3785362 6.6799999
490 2 14.9099998 8.6082926 6.6799999
491 2 16.3299999 8.6082926 6.6799999
492 2 17.0400009 7.3785362 6.6799999
493 2 18.4599991 7.3785362 6.6799999
494 2 19.1700001 8.6082926 6.6799999
495 2 20.5900002 8.6082926 6.6799999
496 2 21.2999992 7.3785362 6.6799999
497 2 22.7199993 7.3785362 6.6799999
498 2 23.4300003 8.6082926 6.6799999
499 2 24.8500004 8.6082926 6.6799999
500 2 25.5599995 7.3785362 6.6799999
501 2 26.9799996 7.3785362 6.6799999
502 2 27.6900006 8.6082926 6.6799999
503 2 29.1100006 8.6082926 6.6799999
504 2 29.8199997 7.3785362 6.6799999
505 2 31.2399998 7.3785362 6.6799999
506 2 31.9500008 8.6082926 6.6799999
507 2 33.3699989 8.6082926 6.6799999
508 2 34.0800018 7.3785362 6.6799999
509 2 35.5 7.3785362 6.6799999
510 2 36.2099991 8.6082926 6.6799999
511 2 37.6300011 8.6082926 6.6799999
512 2 38.3400002 7.3785362 6.6799999
513 2 39.7599983 7.3785362 6.6799999
514 2 40.4700012 8.6082926 6.6799999
515 2 41.8899994 8.6082926 6.6799999
516 2 42.5999985 7.3785362 6.6799999
517 2 44.0200005 7.3785362 6.6799999
518 2 44.7299996 8.6082926 6.6799999
519 2 46.1500015 8.6082926 6.6799999
520 2 46.8600006 7.3785362 6.6799999
521 2 48.2799988 7.3785362 6.6799999
522 2 48.9900018 8.6082926 6.6799999
523 2 50.4099999 8.6082926 6.6799999
524 2 51.1199989 7.3785362 6.6799999
525 2 52.5400009 7.3785362 6.6799999
526 2 53.25 8.6082926 6.6799999
527 2 54.6699982 8.6082926 6.6799999
528 2 55.3800011 7.3785362 6.6799999
529 2 5.6799999 9.838049 6.6799999
530 2 6.3899999 11.0678053 6.6799999
531 2 7.81 11.0678053 6.6799999
532 2 8.5200005 9.838049 6.6799999
533 2 9.9399996 9.838049 6.6799999
534 2 10.6499996 11.0678053 6.6799999
535 2 12.0699997 11.0678053 6.6799999
536 2 12.7799998 9.838049 6.6799999
537 2 14.1999998 9.838049 6.6799999
538 2 14.9099998 11.0678053 6.6799999
539 2 16.3299999 11.0678053 6.6799999
540 2 17.0400009 9.838049 6.6799999
541 2 18.4599991 9.838049 6.6799999
542 2 19.1700001 11.0678053 6.6799999
543 2 20.5900002 11.0678053 6.6799999
544 2 21.2999992 9.838049 6.6799999
545 2 22.7199993 9.838049 6.6799999
546 2 23.4300003 11.0678053 6.6799999
547 2 24.8500004 11.0678053 6.6799999
548 2 25.5599995 9.838049 6.6799999
549 2 26.9799996 9.838049 6.6799999
550 2 27.6900006 11.0678053 6.6799999
551 2 29.1100006 11.0678053 6.6799999
552 2 29.8199997 9.838049 6.6799999
553 2 31.2399998 9.838049 6.6799999
554 2 31.9500008 11.0678053 6.6799999
555 2 33.3699989 11.0678053 6.6799999
556 2 34.0800018 9.838049 6.6799999
557 2 35.5 9.838049 6.6799999
558 2 36.2099991 11.0678053 6.6799999
559 2 37.6300011 11.0678053 6.6799999
560 2 38.3400002 9.838049 6.6799999
561 2 39.7599983 9.838049 6.6799999
562 2 40.4700012 11.0678053 6.6799999
563 2 41.8899994 11.0678053 6.6799999
564 2 42.5999985 9.838049 6.6799999
565 2 44.0200005 9.838049 6.6799999
566 2 44.7299996 11.0678053 6.6799999
567 2 46.1500015 11.0678053 6.6799999
568 2 46.8600006 9.838049 6.6799999
569 2 48.2799988 9.838049 6.6799999
570 2 48.9900018 11.0678053 6.6799999
571 2 50.4099999 11.0678053 6.6799999
572 2 51.1199989 9.838049 6.6799999
573 2 52.5400009 9.838049 6.6799999
574 2 53.25 11.0678053 6.6799999
575 2 54.6699982 11.0678053 6.6799999
576 2 55.3800011 9.838049 6.6799999
577 2 5.6799999 12.2975607 6.6799999
578 2 6.3899999 13.5273171 6.6799999
579 2 7.81 13.5273171 6.6799999
580 2 8.5200005 12.2975607 6.6799999
581 2 9.9399996 12.2975607 6.6799999
582 2 10.6499996 13.5273171 6.6799999
583 2 12.0699997 13.5273171 6.6799999
584 2 12.7799998 12.2975607 6.6799999
585 2 14.1999998 12.2975607 6.6799999
586 2 14.9099998 13.5273171 6.6799999
587 2 16.3299999 13.5273171 6.6799999
588 2 17.0400009 12.2975607 6.6799999
589 2 18.4599991 12.2975607 6.6799999
590 2 19.1700001 13.5273171 6.6799999
591 2 20.5900002 13.5273171 6.6799999
592 2 21.2999992 12.2975607 6.6799999
593 2 22.7199993 12.2975607 6.6799999
594 2 23.4300003 13.5273171 6.6799999
595 2 24.8500004 13.5273171 6.6799999
596 2 25.5599995 12.2975607 6.6799999
597 2 26.9799996 12.2975607 6.6799999
598 2 27.6900006 13.5273171 6.6799999
599 2 29.1100006 13.5273171 6.6799999
600 2 29.8199997 12.2975607 6.6799999
601 2 31.2399998 12.2975607 6.6799999
602 2 31.9500008 13.5273171 6.6799999
603 2 33.3699989 13.5273171 6.6799999
604 2 34.0800018 12.2975607 6.6799999
605 2 35.5 12.2975607 6.6799999
606 2 36.2099991 13.5273171 6.6799999
607 2 37.6300011 13.5273171 6.6799999
608 2 38.3400002 12.2975607 6.6799999
609 2 39.7599983 12.2975607 6.6799999
610 2 40.4700012 13.5273171 6.6799999
611 2 41.8899994 13.5273171 6.6799999
612 2 42.5999985 12.2975607 6.6799999
613 2 44.0200005 12.2975607 6.6799999
614 2 44.7299996 13.5273171 6.6799999
615 2 46.1500015 13.5273171 6.6799999
616 2 46.8600006 12.2975607 6.6799999
617 2 48.2799988 12.2975607 6.6799999
618 2 48.9900018 13.5273171 6.6799999
619 2 50.4099999 13.5273171 6.6799999
620 2 51.1199989 12.2975607 6.6799999
621 2 52.5400009 12.2975607 6.6799999
622 2 53.25 13.5273171 6.6799999
623 2 54.6699982 13.5273171 6.6799999
624 2 55.3800011 12.2975607 6.6799999
625 2 5.6799999 14.7570734 6.6799999
626 2 6.3899999 15.9868288 6.6799999
627 2 7.81 15.9868288 6.6799999
628 2 8.5200005 14.7570734 6.6799999
629 2 9.9399996 14.7570734 6.6799999
630 2 10.6499996 15.9868288 6.6799999
631 2 12.0699997 15.9868288 6.6799999
632 2 12.7799998 14.7570734 6.6799999
633 2 14.1999998 14.7570734 6.6799999
634 2 14.9099998 15.9868288 6.6799999
635 2 16.3299999 15.9868288 6.6799999
636 2 17.0400009 14.7570734 6.6799999
637 2 18.4599991 14.7570734 6.6799999
638 2 19.1700001 15.9868288 6.6799999
639 2 20.5900002 15.9868288 6.6799999
640 2 21.2999992 14.7570734 6.6799999
641 2 22.7199993 14.7570734 6.6799999
642 2 23.4300003 15.9868288 6.6799999
643 2 24.8500004 15.9868288 6.6799999
644 2 25.5599995 14.7570734 6.6799999
645 2 26.9799996 14.7570734 6.6799999
646 2 27.6900006 15.9868288 6.6799999
647 2 29.1100006 15.9868288 6.6799999
648 2 29.8199997 14.7570734 6.6799999
649 2 31.2399998 14.7570734 6.6799999
650 2 31.9500008 15.9868288 6.6799999
651 2 33.3699989 15.9868288 6.6799999
652 2 34.0800018 14.7570734 6.6799999
653 2 35.5 14.7570734 6.6799999
654 2 36.2099991 15.9868288 6.6799999
655 2 37.6300011 15.9868288 6.6799999
656 2 38.3400002 14.7570734 6.6799999
657 2 39.7599983 14.7570734 6.6799999
658 2 40.4700012 15.9868288 6.6799999
659 2 41.8899994 15.9868288 6.6799999
660 2 42.5999985 14.7570734 6.6799999
661 2 44.0200005 14.7570734 6.6799999
662 2 44.7299996 15.9868288 6.6799999
663 2 46.1500015 15.9868288 6.6799999
664 2 46.8600006 14.7570734 6.6799999
665 2 48.2799988 14.7570734 6.6799999
666 2 48.9900018 15.9868288 6.6799999
667 2 50.4099999 15.9868288 6.6799999
668 2 51.1199989 14.7570734 6.6799999
669 2 52.5400009 14.7570734 6.6799999
670 2 53.25 15.9868288 6.6799999
671 2 54.6699982 15.9868288 6.6799999
672 2 55.3800011 14.7570734 6.6799999
673 2 5.6799999 17.2165852 6.6799999
674 2 6.3899999 18.4463406 6.6799999
675 2 7.81 18.4463406 6.6799999
676 2 8.5200005 17.2165852 6.6799999
677 2 9.9399996 17.2165852 6.6799999
678 2 10.6499996 18.4463406 6.6799999
679 2 12.0699997 18.4463406 6.6799999
680 2 12.7799998 17.2165852 6.6799999
681 2 14.1999998 17.2165852 6.6799999
682 2 14.9099998 18.4463406 6.6799999
683 2 16.3299999 18.4463406 6.6799999
684 2 17.0400009 17.2165852 6.6799999
685 2 18.4599991 17.2165852 6.6799999
686 2 19.1700001 18.4463406 6.6799999
687 2 20.5900002 18.4463406 6.6799999
688 2 21.2999992 17.2165852 6.6799999
689 2 22.7199993 17.2165852 6.6799999
690 2 23.4300003 18.4463406 6.6799999
691 2 24.8500004 18.4463406 6.6799999
692 2 25.5599995 17.2165852 6.6799999
693 2 26.9799996 17.2165852 6.6799999
694 2 27.6900006 18.4463406 6.6799999
695 2 29.1100006 18.4463406 6.6799999
696 2 29.8199997 17.2165852 6.6799999
697 2 31.2399998 17.2165852 6.6799999
698 2 31.9500008 18.4463406 6.6799999
699 2 33.3699989 18.4463406 6.6799999
700 2 34.0800018 17.2165852 6.6799999
701 2 35.5 17.2165852 6.6799999
702 2 36.2099991 18.4463406 6.6799999
703 2 37.6300011 18.4463406 6.6799999
704 2 38.3400002 17.2165852 6.6799999
705 2 39.7599983 17.2165852 6.6799999
706 2 40.4700012 18.4463406 6.6799999
707 2 41.8899994 18.4463406 6.6799999
708 2 42.5999985 17.2165852 6.6799999
709 2 44.0200005 17.2165852 6.6799999
710 2 44.7299996 18.4463406 6.6799999
711 2 46.1500015 18.4463406 6.6799999
712 2 46.8600006 17.2165852 6.6799999
713 2 48.2799988 17.2165852 6.6799999
714 2 48.9900018 18.4463406 6.6799999
715 2 50.4099999 18.4463406 6.6799999
716 2 51.1199989 17.2165852 6.6799999
717 2 52.5400009 17.2165852 6.6799999
718 2 53.25 18.4463406 6.6799999
719 2 54.6699982 18.4463406 6.6799999
720 2 55.3800011 17.2165852 6.6799999
721 2 5.6799999 19.6760979 6.6799999
722 2 6.3899999 20.9058534 6.6799999
723 2 7.81 20.9058534 6.6799999
724 2 8.5200005 19.6760979 6.6799999
725 2 9.9399996 19.6760979 6.6799999
726 2 10.6499996 20.9058534 6.6799999
727 2 12.0699997 20.9058534 6.6799999
728 2 12.7799998 19.6760979 6.6799999
729 2 14.1999998 19.6760979 6.6799999
730 2 14.9099998 20.9058534 6.6799999
731 2 16.3299999 20.9058534 6.6799999
732 2 17.0400009 19.6760979 6.6799999
733 2 18.4599991 19.6760979 6.6799999
734 2 19.1700001 20.9058534 6.6799999
735 2 20.5900002 20.9058534 6.6799999
736 2 21.2999992 19.6760979 6.6799999
737 2 22.7199993 19.6760979 6.6799999
738 2 23.4300003 20.9058534 6.6799999
739 2 24.8500004 20.9058534 6.6799999
740 2 25.5599995 19.6760979 6.6799999
741 2 26.9799996 19.6760979 6.6799999
742 2 27.6900006 20.9058534 6.6799999
743 2 29.1100006 20.9058534 6.6799999
744 2 29.8199997 19.6760979 6.6799999
745 2 31.2399998 19.6760979 6.6799999
746 2 31.9500008 20.9058534 6.6799999
747 2 33.3699989 20.9058534 6.6799999
748 2 34.0800018 19.6760979 6.6799999
749 2 35.5 19.6760979 6.6799999
750 2 36.2099991 20.9058534 6.6799999
751 2 37.6300011 20.9058534 6.6799999
752 2 38.3400002 19.6760979 6.6799999
753 2 39.7599983 19.6760979 6.6799999
754 2 40.4700012 20.9058534 6.6799999
755 2 41.8899994 20.9058534 6.6799999
756 2 42.5999985 19.6760979 6.6799999
757 2 44.0200005 19.6760979 6.6799999
758 2 44.7299996 20.9058534 6.6799999
759 2 46.1500015 20.9058534 6.6799999
760 2 46.8600006 19.6760979 6.6799999
761 2 48.2799988 19.6760979 6.6799999
762 2 48.9900018 20.9058534 6.6799999
763 2 50.4099999 20.9058534 6.6799999
764 2 51.1199989 19.6760979 6.6799999
765 2 52.5400009 19.6760979 6.6799999
766 2 53.25 20.9058534 6.6799999
767 2 54.6699982 20.9058534 6.6799999
768 2 55.3800011 19.6760979 6.6799999
769 3 4.2600002 2.459512 10.0200005
770 3 4.9699998 3.6892681 10.0200005
771 3 6.3899999 3.6892681 10.0200005
772 3 7.0999999 2.459512 10.0200005
773 3 8.5200005 2.459512 10.0200005
774 3 9.2299996 3.6892681 10.0200005
775 3 10.6499996 3.6892681 10.0200005
776 3 11.3599997 2.459512 10.0200005
777 3 12.7799998 2.459512 10.0200005
778 3 13.4899998 3.6892681 10.0200005
779 3 14.9099998 3.6892681 10.0200005
780 3 15.6199999 2.459512 10.0200005
781 3 17.0400009 2.459512 10.0200005
782 3 17.75 3.6892681 10.0200005
783 3 19.1700001 3.6892681 10.0200005
784 3 19.8799992 2.459512 10.0200005
785 3 21.2999992 2.459512 10.0200005
786 3 22.0100002 3.6892681 10.0200005
787 3 23.4300003 3.6892681 10.0200005
788 3 24.1399994 2.459512 10.0200005
789 3 25.5599995 2.459512 10.0200005
790 3 26.2700005 3.6892681 10.0200005
791 3 27.6900006 3.6892681 10.0200005
792 3 28.3999996 2.459512 10.0200005
793 3 29.8199997 2.459512 10.0200005
794 3 30.5300007 3.6892681 10.0200005
795 3 31.9500008 3.6892681 10.0200005
796 3 32.6599999 2.459512 10.0200005
797 3 34.0800018 2.459512 10.0200005
798 3 34.7900009 3.6892681 10.0200005
799 3 36.2099991 3.6892681 10.0200005
800 3 36.9199982 2.459512 10.0200005
801 3 38.3400002 2.459512 10.0200005
802 3 39.0499992 3.6892681 10.0200005
803 3 40.4700012 3.6892681 10.0200005
804 3 41.1800003 2.459512 10.0200005
805 3 42.5999985 2.459512 10.0200005
806 3 43.3100014 3.6892681 10.0200005
807 3 44.7299996 3.6892681 10.0200005
808 3 45.4399987 2.459512 10.0200005
809 3 46.8600006 2.459512 10.0200005
810 3 47.5699997 3.6892681 10.0200005