
 160 atoms 
 2 atom types 
-5.000000 	 15.000000 	 xlo xhi
-5.000000 	 25.000000 	 ylo yhi
-5.000000 	 11.680000 	 zlo zhi

 Masses 

1 	 12.0107
2 	 12.0107

 Atoms

1 	 1 	2.459512 	 4.260000 	 3.340000
2 	 1 	3.689268 	 4.970000 	 3.340000 
3 	 1 	3.689268 	 6.390000 	 3.340000 
4 	 1 	2.459512 	 7.100000 	 3.340000 
5 	 1 	2.459512 	 8.520000 	 3.340000
6 	 1 	3.689268 	 9.230000 	 3.340000 
7 	 1 	3.689268 	 10.650000 	 3.340000 
8 	 1 	2.459512 	 11.360000 	 3.340000 
9 	 1 	2.459512 	 12.780000 	 3.340000
10 	 1 	3.689268 	 13.490000 	 3.340000 
11 	 1 	3.689268 	 14.910000 	 3.340000 
12 	 1 	2.459512 	 15.620000 	 3.340000 
13 	 1 	2.459512 	 17.040000 	 3.340000
14 	 1 	3.689268 	 17.750000 	 3.340000 
15 	 1 	3.689268 	 19.170000 	 3.340000 
16 	 1 	2.459512 	 19.880000 	 3.340000 
17 	 1 	2.459512 	 21.300000 	 3.340000
18 	 1 	3.689268 	 22.010000 	 3.340000 
19 	 1 	3.689268 	 23.430000 	 3.340000 
20 	 1 	2.459512 	 24.140000 	 3.340000 
21 	 1 	4.919024 	 4.260000 	 3.340000
22 	 1 	6.148780 	 4.970000 	 3.340000 
23 	 1 	6.148780 	 6.390000 	 3.340000 
24 	 1 	4.919024 	 7.100000 	 3.340000 
25 	 1 	4.919024 	 8.520000 	 3.340000
26 	 1 	6.148780 	 9.230000 	 3.340000 
27 	 1 	6.148780 	 10.650000 	 3.340000 
28 	 1 	4.919024 	 11.360000 	 3.340000 
29 	 1 	4.919024 	 12.780000 	 3.340000
30 	 1 	6.148780 	 13.490000 	 3.340000 
31 	 1 	6.148780 	 14.910000 	 3.340000 
32 	 1 	4.919024 	 15.620000 	 3.340000 
33 	 1 	4.919024 	 17.040000 	 3.340000
34 	 1 	6.148780 	 17.750000 	 3.340000 
35 	 1 	6.148780 	 19.170000 	 3.340000 
36 	 1 	4.919024 	 19.880000 	 3.340000 
37 	 1 	4.919024 	 21.300000 	 3.340000
38 	 1 	6.148780 	 22.010000 	 3.340000 
39 	 1 	6.148780 	 23.430000 	 3.340000 
40 	 1 	4.919024 	 24.140000 	 3.340000 
41 	 1 	7.378536 	 4.260000 	 3.340000
42 	 1 	8.608293 	 4.970000 	 3.340000 
43 	 1 	8.608293 	 6.390000 	 3.340000 
44 	 1 	7.378536 	 7.100000 	 3.340000 
45 	 1 	7.378536 	 8.520000 	 3.340000
46 	 1 	8.608293 	 9.230000 	 3.340000 
47 	 1 	8.608293 	 10.650000 	 3.340000 
48 	 1 	7.378536 	 11.360000 	 3.340000 
49 	 1 	7.378536 	 12.780000 	 3.340000
50 	 1 	8.608293 	 13.490000 	 3.340000 
51 	 1 	8.608293 	 14.910000 	 3.340000 
52 	 1 	7.378536 	 15.620000 	 3.340000 
53 	 1 	7.378536 	 17.040000 	 3.340000
54 	 1 	8.608293 	 17.750000 	 3.340000 
55 	 1 	8.608293 	 19.170000 	 3.340000 
56 	 1 	7.378536 	 19.880000 	 3.340000 
57 	 1 	7.378536 	 21.300000 	 3.340000
58 	 1 	8.608293 	 22.010000 	 3.340000 
59 	 1 	8.608293 	 23.430000 	 3.340000 
60 	 1 	7.378536 	 24.140000 	 3.340000 
61 	 1 	9.838049 	 4.260000 	 3.340000
62 	 1 	11.067805 	 4.970000 	 3.340000 
63 	 1 	11.067805 	 6.390000 	 3.340000 
64 	 1 	9.838049 	 7.100000 	 3.340000 
65 	 1 	9.838049 	 8.520000 	 3.340000
66 	 1 	11.067805 	 9.230000 	 3.340000 
67 	 1 	11.067805 	 10.650000 	 3.340000 
68 	 1 	9.838049 	 11.360000 	 3.340000 
69 	 1 	9.838049 	 12.780000 	 3.340000
70 	 1 	11.067805 	 13.490000 	 3.340000 
71 	 1 	11.067805 	 14.910000 	 3.340000 
72 	 1 	9.838049 	 15.620000 	 3.340000 
73 	 1 	9.838049 	 17.040000 	 3.340000
74 	 1 	11.067805 	 17.750000 	 3.340000 
75 	 1 	11.067805 	 19.170000 	 3.340000 
76 	 1 	9.838049 	 19.880000 	 3.340000 
77 	 1 	9.838049 	 21.300000 	 3.340000
78 	 1 	11.067805 	 22.010000 	 3.340000 
79 	 1 	11.067805 	 23.430000 	 3.340000 
80 	 1 	9.838049 	 24.140000 	 3.340000 
81 	 2 	2.459512 	 5.680000 	 6.680000
82 	 2 	3.689268 	 6.390000 	 6.680000 
83 	 2 	3.689268 	 7.810000 	 6.680000 
84 	 2 	2.459512 	 8.520000 	 6.680000 
85 	 2 	2.459512 	 9.940000 	 6.680000
86 	 2 	3.689268 	 10.650000 	 6.680000 
87 	 2 	3.689268 	 12.070000 	 6.680000 
88 	 2 	2.459512 	 12.780000 	 6.680000 
89 	 2 	2.459512 	 14.200000 	 6.680000
90 	 2 	3.689268 	 14.910000 	 6.680000 
91 	 2 	3.689268 	 16.330000 	 6.680000 
92 	 2 	2.459512 	 17.040000 	 6.680000 
93 	 2 	2.459512 	 18.460000 	 6.680000
94 	 2 	3.689268 	 19.170000 	 6.680000 
95 	 2 	3.689268 	 20.590000 	 6.680000 
96 	 2 	2.459512 	 21.300000 	 6.680000 
97 	 2 	2.459512 	 22.720000 	 6.680000
98 	 2 	3.689268 	 23.430000 	 6.680000 
99 	 2 	3.689268 	 24.850000 	 6.680000 
100 	 2 	2.459512 	 25.560000 	 6.680000 
101 	 2 	4.919024 	 5.680000 	 6.680000
102 	 2 	6.148780 	 6.390000 	 6.680000 
103 	 2 	6.148780 	 7.810000 	 6.680000 
104 	 2 	4.919024 	 8.520000 	 6.680000 
105 	 2 	4.919024 	 9.940000 	 6.680000
106 	 2 	6.148780 	 10.650000 	 6.680000 
107 	 2 	6.148780 	 12.070000 	 6.680000 
108 	 2 	4.919024 	 12.780000 	 6.680000 
109 	 2 	4.919024 	 14.200000 	 6.680000
110 	 2 	6.148780 	 14.910000 	 6.680000 
111 	 2 	6.148780 	 16.330000 	 6.680000 
112 	 2 	4.919024 	 17.040000 	 6.680000 
113 	 2 	4.919024 	 18.460000 	 6.680000
114 	 2 	6.148780 	 19.170000 	 6.680000 
115 	 2 	6.148780 	 20.590000 	 6.680000 
116 	 2 	4.919024 	 21.300000 	 6.680000 
117 	 2 	4.919024 	 22.720000 	 6.680000
118 	 2 	6.148780 	 23.430000 	 6.680000 
119 	 2 	6.148780 	 24.850000 	 6.680000 
120 	 2 	4.919024 	 25.560000 	 6.680000 
121 	 2 	7.378536 	 5.680000 	 6.680000
122 	 2 	8.608293 	 6.390000 	 6.680000 
123 	 2 	8.608293 	 7.810000 	 6.680000 
124 	 2 	7.378536 	 8.520000 	 6.680000 
125 	 2 	7.378536 	 9.940000 	 6.680000
126 	 2 	8.608293 	 10.650000 	 6.680000 
127 	 2 	8.608293 	 12.070000 	 6.680000 
128 	 2 	7.378536 	 12.780000 	 6.680000 
129 	 2 	7.378536 	 14.200000 	 6.680000
130 	 2 	8.608293 	 14.910000 	 6.680000 
131 	 2 	8.608293 	 16.330000 	 6.680000 
132 	 2 	7.378536 	 17.040000 	 6.680000 
133 	 2 	7.378536 	 18.460000 	 6.680000
134 	 2 	8.608293 	 19.170000 	 6.680000 
135 	 2 	8.608293 	 20.590000 	 6.680000 
136 	 2 	7.378536 	 21.300000 	 6.680000 
137 	 2 	7.378536 	 22.720000 	 6.680000
138 	 2 	8.608293 	 23.430000 	 6.680000 
139 	 2 	8.608293 	 24.850000 	 6.680000 
140 	 2 	7.378536 	 25.560000 	 6.680000 
141 	 2 	9.838049 	 5.680000 	 6.680000
142 	 2 	11.067805 	 6.390000 	 6.680000 
143 	 2 	11.067805 	 7.810000 	 6.680000 
144 	 2 	9.838049 	 8.520000 	 6.680000 
145 	 2 	9.838049 	 9.940000 	 6.680000
146 	 2 	11.067805 	 10.650000 	 6.680000 
147 	 2 	11.067805 	 12.070000 	 6.680000 
148 	 2 	9.838049 	 12.780000 	 6.680000 
149 	 2 	9.838049 	 14.200000 	 6.680000
150 	 2 	11.067805 	 14.910000 	 6.680000 
151 	 2 	11.067805 	 16.330000 	 6.680000 
152 	 2 	9.838049 	 17.040000 	 6.680000 
153 	 2 	9.838049 	 18.460000 	 6.680000
154 	 2 	11.067805 	 19.170000 	 6.680000 
155 	 2 	11.067805 	 20.590000 	 6.680000 
156 	 2 	9.838049 	 21.300000 	 6.680000 
157 	 2 	9.838049 	 22.720000 	 6.680000
158 	 2 	11.067805 	 23.430000 	 6.680000 
159 	 2 	11.067805 	 24.850000 	 6.680000 
160 	 2 	9.838049 	 25.560000 	 6.680000 
