ITEM: TIMESTEP
0
ITEM: NUMBER OF ATOMS
8
ITEM: BOX BOUNDS pp pp ff
2.7360333884591515e-02 4.8916636661154049e+00
-4.5276439017016905e+00 4.2867643901701470e+01
-5.0000000000000000e+00 2.1680000000000001e+02
ITEM: ATOMS id type x y z fx fy fz
1325 4 0.0952668 29.7862 60.4569 -2.44789 -2.21698 -1.04076
1326 4 1.27503 30.4659 60.427 1.56793 -0.448148 -0.173822
1357 4 2.48662 29.7954 60.2174 0.372641 -0.0374793 0.721184
1358 4 3.74563 30.4503 60.3112 -1.64615 -0.146161 0.514491
1327 4 1.28294 31.8127 60.6741 0.548718 1.28257 -0.287016
1328 4 0.085657 32.472 60.7586 -2.3485 -0.424128 0.216245
1359 4 3.70696 31.8045 60.5968 0.997888 2.61373 -0.114814
1360 4 2.47812 32.4769 60.5101 1.33112 -0.34316 0.12211
ITEM: TIMESTEP
500
ITEM: NUMBER OF ATOMS
8
ITEM: BOX BOUNDS pp pp ff
2.7360333884591515e-02 4.8916636661154049e+00
-4.5276439017016905e+00 4.2867643901701470e+01
-5.0000000000000000e+00 2.1680000000000001e+02
ITEM: ATOMS id type x y z fx fy fz
1325 4 4.86787 29.7996 60.3889 0.0752893 -3.09438 0.349442
1326 4 1.21214 30.4673 60.6207 1.36686 -3.27239 -0.929806
1357 4 2.41837 29.7092 60.5062 0.482628 2.0779 -0.611943
1358 4 3.65329 30.4442 60.3788 -1.24415 1.31339 0.171702
1327 4 1.25409 31.8311 60.6753 -0.216815 2.3023 0.336925
1328 4 0.028385 32.44 60.9459 -0.749272 0.032618 -0.832655
1359 4 3.70777 31.8838 60.3966 -1.36799 -0.426568 1.33134
1360 4 2.43541 32.5039 60.3377 0.722 -0.580724 -0.197453
ITEM: TIMESTEP
1000
ITEM: NUMBER OF ATOMS
8
ITEM: BOX BOUNDS pp pp ff
2.7360333884591515e-02 4.8916636661154049e+00
-4.5276439017016905e+00 4.2867643901701470e+01
-5.0000000000000000e+00 2.1680000000000001e+02
ITEM: ATOMS id type x y z fx fy fz
1325 4 4.84166 29.7531 60.4423 -0.0807017 0.434999 -0.0594119
1326 4 1.16753 30.502 60.5857 -0.503393 -2.99676 0.106525
1357 4 2.386 29.77 60.5349 0.576139 -1.08965 0.0711322
1358 4 3.60801 30.449 60.5235 -0.103636 0.511531 0.149221
1327 4 1.11554 31.8888 60.6379 0.326438 0.194205 -0.931124
1328 4 4.7486 32.4861 60.8959 0.40099 0.242774 0.420237
1359 4 3.54148 31.8694 60.6136 -0.865877 -0.128378 -1.47831
1360 4 2.29806 32.4501 60.183 2.05798 0.657464 1.21593
ITEM: TIMESTEP
1500
ITEM: NUMBER OF ATOMS
8
ITEM: BOX BOUNDS pp pp ff
2.7360333884591515e-02 4.8916636661154049e+00
-4.5276439017016905e+00 4.2867643901701470e+01
-5.0000000000000000e+00 2.1680000000000001e+02
ITEM: ATOMS id type x y z fx fy fz
1325 4 4.80318 29.7061 60.4941 -0.682277 -0.26947 0.205557
1326 4 1.14548 30.3863 60.5086 0.788078 1.12944 -0.347042
1357 4 2.38383 29.7043 60.5577 -0.837318 -0.87442 -0.435888
1358 4 3.57642 30.4025 60.6154 0.625823 0.542948 -0.311237
1327 4 1.09749 31.814 60.4145 2.71152 -1.3212 0.52507
1328 4 4.8101 32.4201 60.8011 -2.61917 0.717347 0.232132
1359 4 3.55086 31.8241 60.6199 0.778421 -0.0755664 0.129869
1360 4 2.33483 32.4694 60.3573 0.202615 -0.75005 -0.300186
ITEM: TIMESTEP
2000
ITEM: NUMBER OF ATOMS
8
ITEM: BOX BOUNDS pp pp ff
2.7360333884591515e-02 4.8916636661154049e+00
-4.5276439017016905e+00 4.2867643901701470e+01
-5.0000000000000000e+00 2.1680000000000001e+02
ITEM: ATOMS id type x y z fx fy fz
1325 4 4.83076 29.6669 60.5757 0.484203 -0.552031 -0.0180067
1326 4 1.18169 30.3454 60.4248 1.09747 0.907252 1.00084
1357 4 2.41113 29.6463 60.4683 -0.10985 2.30391 0.186187
1358 4 3.6258 30.3294 60.5934 -0.561052 0.918415 -0.311039
1327 4 1.22757 31.7838 60.5025 -2.05207 -1.05977 -0.167952
1328 4 4.84721 32.3962 60.6886 1.48931 -0.257924 0.743012
1359 4 3.65865 31.7203 60.5686 -0.924183 0.506064 0.197351
1360 4 2.45592 32.3908 60.4695 0.256324 0.145434 0.107085
ITEM: TIMESTEP
2500
ITEM: NUMBER OF ATOMS
8
ITEM: BOX BOUNDS pp pp ff
2.7360333884591515e-02 4.8916636661154049e+00
-4.5276439017016905e+00 4.2867643901701470e+01
-5.0000000000000000e+00 2.1680000000000001e+02
ITEM: ATOMS id type x y z fx fy fz
1360 4 2.46268 32.3963 60.5381 -1.75072 0.729244 -0.00979397
1325 4 4.89277 29.6472 60.608 0.363648 2.0779 -0.169183
1326 4 1.27852 30.3493 60.6614 -2.47795 -0.114055 -0.0964606
1357 4 2.46555 29.6738 60.4673 0.739778 -0.375976 0.609002
1358 4 3.69356 30.3892 60.4793 -0.484811 -1.21248 0.554449
1327 4 1.24772 31.7467 60.7196 0.159486 0.548819 0.476602
1328 4 4.88415 32.3975 60.802 0.666824 -0.0977326 0.499625
1359 4 3.66571 31.782 60.6282 1.53592 -0.904745 -0.134865
ITEM: TIMESTEP
3000
ITEM: NUMBER OF ATOMS
8
ITEM: BOX BOUNDS pp pp ff
2.7360333884591515e-02 4.8916636661154049e+00
-4.5276439017016905e+00 4.2867643901701470e+01
-5.0000000000000000e+00 2.1680000000000001e+02
ITEM: ATOMS id type x y z fx fy fz
1360 4 2.44043 32.4016 60.6247 0.0190641 -0.224183 0.137544
1325 4 4.88153 29.5968 60.5842 -1.14578 1.56665 0.877419
1326 4 1.21783 30.3269 60.8326 -0.300317 -0.0360995 -0.0317124
1357 4 2.42825 29.6436 60.7189 0.327148 -2.39346 -0.506232
1358 4 3.62178 30.3458 60.6016 2.9017 -0.702264 0.124961
1327 4 1.26282 31.7495 61.0231 -1.09752 -0.622298 -1.00496
1328 4 4.86391 32.3574 61.1147 0.573399 -0.336038 0.235975
1359 4 3.68718 31.7649 60.6596 -0.968655 -0.377219 0.531908
