ITEM: TIMESTEP
0
ITEM: NUMBER OF ATOMS
0
ITEM: BOX BOUNDS pp pp ff
2.7360333884591515e-02 4.8916636661154049e+00
-4.5276439017016905e+00 4.2867643901701470e+01
-5.0000000000000000e+00 2.1680000000000001e+02
ITEM: ATOMS id type x y z fx fy fz
ITEM: TIMESTEP
500
ITEM: NUMBER OF ATOMS
0
ITEM: BOX BOUNDS pp pp ff
2.7360333884591515e-02 4.8916636661154049e+00
-4.5276439017016905e+00 4.2867643901701470e+01
-5.0000000000000000e+00 2.1680000000000001e+02
ITEM: ATOMS id type x y z fx fy fz
ITEM: TIMESTEP
1000
ITEM: NUMBER OF ATOMS
0
ITEM: BOX BOUNDS pp pp ff
2.7360333884591515e-02 4.8916636661154049e+00
-4.5276439017016905e+00 4.2867643901701470e+01
-5.0000000000000000e+00 2.1680000000000001e+02
ITEM: ATOMS id type x y z fx fy fz
ITEM: TIMESTEP
1500
ITEM: NUMBER OF ATOMS
0
ITEM: BOX BOUNDS pp pp ff
2.7360333884591515e-02 4.8916636661154049e+00
-4.5276439017016905e+00 4.2867643901701470e+01
-5.0000000000000000e+00 2.1680000000000001e+02
ITEM: ATOMS id type x y z fx fy fz
ITEM: TIMESTEP
2000
ITEM: NUMBER OF ATOMS
0
ITEM: BOX BOUNDS pp pp ff
2.7360333884591515e-02 4.8916636661154049e+00
-4.5276439017016905e+00 4.2867643901701470e+01
-5.0000000000000000e+00 2.1680000000000001e+02
ITEM: ATOMS id type x y z fx fy fz
ITEM: TIMESTEP
2500
ITEM: NUMBER OF ATOMS
0
ITEM: BOX BOUNDS pp pp ff
2.7360333884591515e-02 4.8916636661154049e+00
-4.5276439017016905e+00 4.2867643901701470e+01
-5.0000000000000000e+00 2.1680000000000001e+02
ITEM: ATOMS id type x y z fx fy fz
ITEM: TIMESTEP
3000
ITEM: NUMBER OF ATOMS
0
ITEM: BOX BOUNDS pp pp ff
2.7360333884591515e-02 4.8916636661154049e+00
-4.5276439017016905e+00 4.2867643901701470e+01
-5.0000000000000000e+00 2.1680000000000001e+02
ITEM: ATOMS id type x y z fx fy fz
