ITEM: TIMESTEP
0
ITEM: NUMBER OF ATOMS
960
ITEM: BOX BOUNDS pp pp pp
0.0000000000000000e+00 4.9190243000000002e+01
0.0000000000000000e+00 5.1119999999999997e+01
-2.5000000000000000e+01 4.8380000000000003e+01
ITEM: ATOMS id type x y z 
1 1 0 0 0 
2 1 1.22976 0.71 0 
3 1 1.22976 2.13 0 
4 1 0 2.84 0 
5 1 0 4.26 0 
6 1 1.22976 4.97 0 
7 1 1.22976 6.39 0 
8 1 0 7.1 0 
9 1 0 8.52 0 
10 1 1.22976 9.23 0 
11 1 1.22976 10.65 0 
12 1 0 11.36 0 
13 1 0 12.78 0 
14 1 1.22976 13.49 0 
15 1 1.22976 14.91 0 
16 1 0 15.62 0 
17 1 0 17.04 0 
18 1 1.22976 17.75 0 
19 1 1.22976 19.17 0 
20 1 0 19.88 0 
21 1 0 21.3 0 
22 1 1.22976 22.01 0 
23 1 1.22976 23.43 0 
24 1 0 24.14 0 
25 1 0 25.56 0 
26 1 1.22976 26.27 0 
27 1 1.22976 27.69 0 
28 1 0 28.4 0 
29 1 0 29.82 0 
30 1 1.22976 30.53 0 
31 1 1.22976 31.95 0 
32 1 0 32.66 0 
33 1 0 34.08 0 
34 1 1.22976 34.79 0 
35 1 1.22976 36.21 0 
36 1 0 36.92 0 
37 1 0 38.34 0 
38 1 1.22976 39.05 0 
39 1 1.22976 40.47 0 
40 1 0 41.18 0 
41 1 0 42.6 0 
42 1 1.22976 43.31 0 
43 1 1.22976 44.73 0 
44 1 0 45.44 0 
45 1 0 46.86 0 
46 1 1.22976 47.57 0 
47 1 1.22976 48.99 0 
48 1 0 49.7 0 
49 1 2.45951 0 0 
50 1 3.68927 0.71 0 
51 1 3.68927 2.13 0 
52 1 2.45951 2.84 0 
53 1 2.45951 4.26 0 
54 1 3.68927 4.97 0 
55 1 3.68927 6.39 0 
56 1 2.45951 7.1 0 
57 1 2.45951 8.52 0 
58 1 3.68927 9.23 0 
59 1 3.68927 10.65 0 
60 1 2.45951 11.36 0 
61 1 2.45951 12.78 0 
62 1 3.68927 13.49 0 
63 1 3.68927 14.91 0 
64 1 2.45951 15.62 0 
65 1 2.45951 17.04 0 
66 1 3.68927 17.75 0 
67 1 3.68927 19.17 0 
68 1 2.45951 19.88 0 
69 1 2.45951 21.3 0 
70 1 3.68927 22.01 0 
71 1 3.68927 23.43 0 
72 1 2.45951 24.14 0 
73 1 2.45951 25.56 0 
74 1 3.68927 26.27 0 
75 1 3.68927 27.69 0 
76 1 2.45951 28.4 0 
77 1 2.45951 29.82 0 
78 1 3.68927 30.53 0 
79 1 3.68927 31.95 0 
80 1 2.45951 32.66 0 
81 1 2.45951 34.08 0 
82 1 3.68927 34.79 0 
83 1 3.68927 36.21 0 
84 1 2.45951 36.92 0 
85 1 2.45951 38.34 0 
86 1 3.68927 39.05 0 
87 1 3.68927 40.47 0 
88 1 2.45951 41.18 0 
89 1 2.45951 42.6 0 
90 1 3.68927 43.31 0 
91 1 3.68927 44.73 0 
92 1 2.45951 45.44 0 
93 1 2.45951 46.86 0 
94 1 3.68927 47.57 0 
95 1 3.68927 48.99 0 
96 1 2.45951 49.7 0 
97 1 4.91902 0 0 
98 1 6.14878 0.71 0 
99 1 6.14878 2.13 0 
100 1 4.91902 2.84 0 
101 1 4.91902 4.26 0 
102 1 6.14878 4.97 0 
103 1 6.14878 6.39 0 
104 1 4.91902 7.1 0 
105 1 4.91902 8.52 0 
106 1 6.14878 9.23 0 
107 1 6.14878 10.65 0 
108 1 4.91902 11.36 0 
109 1 4.91902 12.78 0 
110 1 6.14878 13.49 0 
111 1 6.14878 14.91 0 
112 1 4.91902 15.62 0 
113 1 4.91902 17.04 0 
114 1 6.14878 17.75 0 
115 1 6.14878 19.17 0 
116 1 4.91902 19.88 0 
117 1 4.91902 21.3 0 
118 1 6.14878 22.01 0 
119 1 6.14878 23.43 0 
120 1 4.91902 24.14 0 
121 1 4.91902 25.56 0 
122 1 6.14878 26.27 0 
123 1 6.14878 27.69 0 
124 1 4.91902 28.4 0 
125 1 4.91902 29.82 0 
126 1 6.14878 30.53 0 
127 1 6.14878 31.95 0 
128 1 4.91902 32.66 0 
129 1 4.91902 34.08 0 
130 1 6.14878 34.79 0 
131 1 6.14878 36.21 0 
132 1 4.91902 36.92 0 
133 1 4.91902 38.34 0 
134 1 6.14878 39.05 0 
135 1 6.14878 40.47 0 
136 1 4.91902 41.18 0 
137 1 4.91902 42.6 0 
138 1 6.14878 43.31 0 
139 1 6.14878 44.73 0 
140 1 4.91902 45.44 0 
141 1 4.91902 46.86 0 
142 1 6.14878 47.57 0 
143 1 6.14878 48.99 0 
144 1 4.91902 49.7 0 
145 1 7.37854 0 0 
146 1 8.60829 0.71 0 
147 1 8.60829 2.13 0 
148 1 7.37854 2.84 0 
149 1 7.37854 4.26 0 
150 1 8.60829 4.97 0 
151 1 8.60829 6.39 0 
152 1 7.37854 7.1 0 
153 1 7.37854 8.52 0 
154 1 8.60829 9.23 0 
155 1 8.60829 10.65 0 
156 1 7.37854 11.36 0 
157 1 7.37854 12.78 0 
158 1 8.60829 13.49 0 
159 1 8.60829 14.91 0 
160 1 7.37854 15.62 0 
161 1 7.37854 17.04 0 
162 1 8.60829 17.75 0 
163 1 8.60829 19.17 0 
164 1 7.37854 19.88 0 
165 1 7.37854 21.3 0 
166 1 8.60829 22.01 0 
167 1 8.60829 23.43 0 
168 1 7.37854 24.14 0 
169 1 7.37854 25.56 0 
170 1 8.60829 26.27 0 
171 1 8.60829 27.69 0 
172 1 7.37854 28.4 0 
173 1 7.37854 29.82 0 
174 1 8.60829 30.53 0 
175 1 8.60829 31.95 0 
176 1 7.37854 32.66 0 
177 1 7.37854 34.08 0 
178 1 8.60829 34.79 0 
179 1 8.60829 36.21 0 
180 1 7.37854 36.92 0 
181 1 7.37854 38.34 0 
182 1 8.60829 39.05 0 
183 1 8.60829 40.47 0 
184 1 7.37854 41.18 0 
185 1 7.37854 42.6 0 
186 1 8.60829 43.31 0 
187 1 8.60829 44.73 0 
188 1 7.37854 45.44 0 
189 1 7.37854 46.86 0 
190 1 8.60829 47.57 0 
191 1 8.60829 48.99 0 
192 1 7.37854 49.7 0 
193 1 9.83805 0 0 
194 1 11.0678 0.71 0 
195 1 11.0678 2.13 0 
196 1 9.83805 2.84 0 
197 1 9.83805 4.26 0 
198 1 11.0678 4.97 0 
199 1 11.0678 6.39 0 
200 1 9.83805 7.1 0 
201 1 9.83805 8.52 0 
202 1 11.0678 9.23 0 
203 1 11.0678 10.65 0 
204 1 9.83805 11.36 0 
205 1 9.83805 12.78 0 
206 1 11.0678 13.49 0 
207 1 11.0678 14.91 0 
208 1 9.83805 15.62 0 
209 1 9.83805 17.04 0 
210 1 11.0678 17.75 0 
211 1 11.0678 19.17 0 
212 1 9.83805 19.88 0 
213 1 9.83805 21.3 0 
214 1 11.0678 22.01 0 
215 1 11.0678 23.43 0 
216 1 9.83805 24.14 0 
217 1 9.83805 25.56 0 
218 1 11.0678 26.27 0 
219 1 11.0678 27.69 0 
220 1 9.83805 28.4 0 
221 1 9.83805 29.82 0 
222 1 11.0678 30.53 0 
223 1 11.0678 31.95 0 
224 1 9.83805 32.66 0 
225 1 9.83805 34.08 0 
226 1 11.0678 34.79 0 
227 1 11.0678 36.21 0 
228 1 9.83805 36.92 0 
229 1 9.83805 38.34 0 
230 1 11.0678 39.05 0 
231 1 11.0678 40.47 0 
232 1 9.83805 41.18 0 
233 1 9.83805 42.6 0 
234 1 11.0678 43.31 0 
235 1 11.0678 44.73 0 
236 1 9.83805 45.44 0 
237 1 9.83805 46.86 0 
238 1 11.0678 47.57 0 
239 1 11.0678 48.99 0 
240 1 9.83805 49.7 0 
241 1 12.2976 0 0 
242 1 13.5273 0.71 0 
243 1 13.5273 2.13 0 
244 1 12.2976 2.84 0 
245 1 12.2976 4.26 0 
246 1 13.5273 4.97 0 
247 1 13.5273 6.39 0 
248 1 12.2976 7.1 0 
249 1 12.2976 8.52 0 
250 1 13.5273 9.23 0 
251 1 13.5273 10.65 0 
252 1 12.2976 11.36 0 
253 1 12.2976 12.78 0 
254 1 13.5273 13.49 0 
255 1 13.5273 14.91 0 
256 1 12.2976 15.62 0 
257 1 12.2976 17.04 0 
258 1 13.5273 17.75 0 
259 1 13.5273 19.17 0 
260 1 12.2976 19.88 0 
261 1 12.2976 21.3 0 
262 1 13.5273 22.01 0 
263 1 13.5273 23.43 0 
264 1 12.2976 24.14 0 
265 1 12.2976 25.56 0 
266 1 13.5273 26.27 0 
267 1 13.5273 27.69 0 
268 1 12.2976 28.4 0 
269 1 12.2976 29.82 0 
270 1 13.5273 30.53 0 
271 1 13.5273 31.95 0 
272 1 12.2976 32.66 0 
273 1 12.2976 34.08 0 
274 1 13.5273 34.79 0 
275 1 13.5273 36.21 0 
276 1 12.2976 36.92 0 
277 1 12.2976 38.34 0 
278 1 13.5273 39.05 0 
279 1 13.5273 40.47 0 
280 1 12.2976 41.18 0 
281 1 12.2976 42.6 0 
282 1 13.5273 43.31 0 
283 1 13.5273 44.73 0 
284 1 12.2976 45.44 0 
285 1 12.2976 46.86 0 
286 1 13.5273 47.57 0 
287 1 13.5273 48.99 0 
288 1 12.2976 49.7 0 
289 1 14.7571 0 0 
290 1 15.9868 0.71 0 
291 1 15.9868 2.13 0 
292 1 14.7571 2.84 0 
293 1 14.7571 4.26 0 
294 1 15.9868 4.97 0 
295 1 15.9868 6.39 0 
296 1 14.7571 7.1 0 
297 1 14.7571 8.52 0 
298 1 15.9868 9.23 0 
299 1 15.9868 10.65 0 
300 1 14.7571 11.36 0 
301 1 14.7571 12.78 0 
302 1 15.9868 13.49 0 
303 1 15.9868 14.91 0 
304 1 14.7571 15.62 0 
305 1 14.7571 17.04 0 
306 1 15.9868 17.75 0 
307 1 15.9868 19.17 0 
308 1 14.7571 19.88 0 
309 1 14.7571 21.3 0 
310 1 15.9868 22.01 0 
311 1 15.9868 23.43 0 
312 1 14.7571 24.14 0 
313 1 14.7571 25.56 0 
314 1 15.9868 26.27 0 
315 1 15.9868 27.69 0 
316 1 14.7571 28.4 0 
317 1 14.7571 29.82 0 
318 1 15.9868 30.53 0 
319 1 15.9868 31.95 0 
320 1 14.7571 32.66 0 
321 1 14.7571 34.08 0 
322 1 15.9868 34.79 0 
323 1 15.9868 36.21 0 
324 1 14.7571 36.92 0 
325 1 14.7571 38.34 0 
326 1 15.9868 39.05 0 
327 1 15.9868 40.47 0 
328 1 14.7571 41.18 0 
329 1 14.7571 42.6 0 
330 1 15.9868 43.31 0 
331 1 15.9868 44.73 0 
332 1 14.7571 45.44 0 
333 1 14.7571 46.86 0 
334 1 15.9868 47.57 0 
335 1 15.9868 48.99 0 
336 1 14.7571 49.7 0 
337 1 17.2166 0 0 
338 1 18.4463 0.71 0 
339 1 18.4463 2.13 0 
340 1 17.2166 2.84 0 
341 1 17.2166 4.26 0 
342 1 18.4463 4.97 0 
343 1 18.4463 6.39 0 
344 1 17.2166 7.1 0 
345 1 17.2166 8.52 0 
346 1 18.4463 9.23 0 
347 1 18.4463 10.65 0 
348 1 17.2166 11.36 0 
349 1 17.2166 12.78 0 
350 1 18.4463 13.49 0 
351 1 18.4463 14.91 0 
352 1 17.2166 15.62 0 
353 1 17.2166 17.04 0 
354 1 18.4463 17.75 0 
355 1 18.4463 19.17 0 
356 1 17.2166 19.88 0 
357 1 17.2166 21.3 0 
358 1 18.4463 22.01 0 
359 1 18.4463 23.43 0 
360 1 17.2166 24.14 0 
361 1 17.2166 25.56 0 
362 1 18.4463 26.27 0 
363 1 18.4463 27.69 0 
364 1 17.2166 28.4 0 
365 1 17.2166 29.82 0 
366 1 18.4463 30.53 0 
367 1 18.4463 31.95 0 
368 1 17.2166 32.66 0 
369 1 17.2166 34.08 0 
370 1 18.4463 34.79 0 
371 1 18.4463 36.21 0 
372 1 17.2166 36.92 0 
373 1 17.2166 38.34 0 
374 1 18.4463 39.05 0 
375 1 18.4463 40.47 0 
376 1 17.2166 41.18 0 
377 1 17.2166 42.6 0 
378 1 18.4463 43.31 0 
379 1 18.4463 44.73 0 
380 1 17.2166 45.44 0 
381 1 17.2166 46.86 0 
382 1 18.4463 47.57 0 
383 1 18.4463 48.99 0 
384 1 17.2166 49.7 0 
385 1 19.6761 0 0 
386 1 20.9059 0.71 0 
387 1 20.9059 2.13 0 
388 1 19.6761 2.84 0 
389 1 19.6761 4.26 0 
390 1 20.9059 4.97 0 
391 1 20.9059 6.39 0 
392 1 19.6761 7.1 0 
393 1 19.6761 8.52 0 
394 1 20.9059 9.23 0 
395 1 20.9059 10.65 0 
396 1 19.6761 11.36 0 
397 1 19.6761 12.78 0 
398 1 20.9059 13.49 0 
399 1 20.9059 14.91 0 
400 1 19.6761 15.62 0 
401 1 19.6761 17.04 0 
402 1 20.9059 17.75 0 
403 1 20.9059 19.17 0 
404 1 19.6761 19.88 0 
405 1 19.6761 21.3 0 
406 1 20.9059 22.01 0 
407 1 20.9059 23.43 0 
408 1 19.6761 24.14 0 
409 1 19.6761 25.56 0 
410 1 20.9059 26.27 0 
411 1 20.9059 27.69 0 
412 1 19.6761 28.4 0 
413 1 19.6761 29.82 0 
414 1 20.9059 30.53 0 
415 1 20.9059 31.95 0 
416 1 19.6761 32.66 0 
417 1 19.6761 34.08 0 
418 1 20.9059 34.79 0 
419 1 20.9059 36.21 0 
420 1 19.6761 36.92 0 
421 1 19.6761 38.34 0 
422 1 20.9059 39.05 0 
423 1 20.9059 40.47 0 
424 1 19.6761 41.18 0 
425 1 19.6761 42.6 0 
426 1 20.9059 43.31 0 
427 1 20.9059 44.73 0 
428 1 19.6761 45.44 0 
429 1 19.6761 46.86 0 
430 1 20.9059 47.57 0 
431 1 20.9059 48.99 0 
432 1 19.6761 49.7 0 
433 1 22.1356 0 0 
434 1 23.3654 0.71 0 
435 1 23.3654 2.13 0 
436 1 22.1356 2.84 0 
437 1 22.1356 4.26 0 
438 1 23.3654 4.97 0 
439 1 23.3654 6.39 0 
440 1 22.1356 7.1 0 
441 1 22.1356 8.52 0 
442 1 23.3654 9.23 0 
443 1 23.3654 10.65 0 
444 1 22.1356 11.36 0 
445 1 22.1356 12.78 0 
446 1 23.3654 13.49 0 
447 1 23.3654 14.91 0 
448 1 22.1356 15.62 0 
449 1 22.1356 17.04 0 
450 1 23.3654 17.75 0 
451 1 23.3654 19.17 0 
452 1 22.1356 19.88 0 
453 1 22.1356 21.3 0 
454 1 23.3654 22.01 0 
455 1 23.3654 23.43 0 
456 1 22.1356 24.14 0 
457 1 22.1356 25.56 0 
458 1 23.3654 26.27 0 
459 1 23.3654 27.69 0 
460 1 22.1356 28.4 0 
461 1 22.1356 29.82 0 
462 1 23.3654 30.53 0 
463 1 23.3654 31.95 0 
464 1 22.1356 32.66 0 
465 1 22.1356 34.08 0 
466 1 23.3654 34.79 0 
467 1 23.3654 36.21 0 
468 1 22.1356 36.92 0 
469 1 22.1356 38.34 0 
470 1 23.3654 39.05 0 
471 1 23.3654 40.47 0 
472 1 22.1356 41.18 0 
473 1 22.1356 42.6 0 
474 1 23.3654 43.31 0 
475 1 23.3654 44.73 0 
476 1 22.1356 45.44 0 
477 1 22.1356 46.86 0 
478 1 23.3654 47.57 0 
479 1 23.3654 48.99 0 
480 1 22.1356 49.7 0 
481 1 24.5951 0 0 
482 1 25.8249 0.71 0 
483 1 25.8249 2.13 0 
484 1 24.5951 2.84 0 
485 1 24.5951 4.26 0 
486 1 25.8249 4.97 0 
487 1 25.8249 6.39 0 
488 1 24.5951 7.1 0 
489 1 24.5951 8.52 0 
490 1 25.8249 9.23 0 
491 1 25.8249 10.65 0 
492 1 24.5951 11.36 0 
493 1 24.5951 12.78 0 
494 1 25.8249 13.49 0 
495 1 25.8249 14.91 0 
496 1 24.5951 15.62 0 
497 1 24.5951 17.04 0 
498 1 25.8249 17.75 0 
499 1 25.8249 19.17 0 
500 1 24.5951 19.88 0 
501 1 24.5951 21.3 0 
502 1 25.8249 22.01 0 
503 1 25.8249 23.43 0 
504 1 24.5951 24.14 0 
505 1 24.5951 25.56 0 
506 1 25.8249 26.27 0 
507 1 25.8249 27.69 0 
508 1 24.5951 28.4 0 
509 1 24.5951 29.82 0 
510 1 25.8249 30.53 0 
511 1 25.8249 31.95 0 
512 1 24.5951 32.66 0 
513 1 24.5951 34.08 0 
514 1 25.8249 34.79 0 
515 1 25.8249 36.21 0 
516 1 24.5951 36.92 0 
517 1 24.5951 38.34 0 
518 1 25.8249 39.05 0 
519 1 25.8249 40.47 0 
520 1 24.5951 41.18 0 
521 1 24.5951 42.6 0 
522 1 25.8249 43.31 0 
523 1 25.8249 44.73 0 
524 1 24.5951 45.44 0 
525 1 24.5951 46.86 0 
526 1 25.8249 47.57 0 
527 1 25.8249 48.99 0 
528 1 24.5951 49.7 0 
529 1 27.0546 0 0 
530 1 28.2844 0.71 0 
531 1 28.2844 2.13 0 
532 1 27.0546 2.84 0 
533 1 27.0546 4.26 0 
534 1 28.2844 4.97 0 
535 1 28.2844 6.39 0 
536 1 27.0546 7.1 0 
537 1 27.0546 8.52 0 
538 1 28.2844 9.23 0 
539 1 28.2844 10.65 0 
540 1 27.0546 11.36 0 
541 1 27.0546 12.78 0 
542 1 28.2844 13.49 0 
543 1 28.2844 14.91 0 
544 1 27.0546 15.62 0 
545 1 27.0546 17.04 0 
546 1 28.2844 17.75 0 
547 1 28.2844 19.17 0 
548 1 27.0546 19.88 0 
549 1 27.0546 21.3 0 
550 1 28.2844 22.01 0 
551 1 28.2844 23.43 0 
552 1 27.0546 24.14 0 
553 1 27.0546 25.56 0 
554 1 28.2844 26.27 0 
555 1 28.2844 27.69 0 
556 1 27.0546 28.4 0 
557 1 27.0546 29.82 0 
558 1 28.2844 30.53 0 
559 1 28.2844 31.95 0 
560 1 27.0546 32.66 0 
561 1 27.0546 34.08 0 
562 1 28.2844 34.79 0 
563 1 28.2844 36.21 0 
564 1 27.0546 36.92 0 
565 1 27.0546 38.34 0 
566 1 28.2844 39.05 0 
567 1 28.2844 40.47 0 
568 1 27.0546 41.18 0 
569 1 27.0546 42.6 0 
570 1 28.2844 43.31 0 
571 1 28.2844 44.73 0 
572 1 27.0546 45.44 0 
573 1 27.0546 46.86 0 
574 1 28.2844 47.57 0 
575 1 28.2844 48.99 0 
576 1 27.0546 49.7 0 
577 1 29.5141 0 0 
578 1 30.7439 0.71 0 
579 1 30.7439 2.13 0 
580 1 29.5141 2.84 0 
581 1 29.5141 4.26 0 
582 1 30.7439 4.97 0 
583 1 30.7439 6.39 0 
584 1 29.5141 7.1 0 
585 1 29.5141 8.52 0 
586 1 30.7439 9.23 0 
587 1 30.7439 10.65 0 
588 1 29.5141 11.36 0 
589 1 29.5141 12.78 0 
590 1 30.7439 13.49 0 
591 1 30.7439 14.91 0 
592 1 29.5141 15.62 0 
593 1 29.5141 17.04 0 
594 1 30.7439 17.75 0 
595 1 30.7439 19.17 0 
596 1 29.5141 19.88 0 
597 1 29.5141 21.3 0 
598 1 30.7439 22.01 0 
599 1 30.7439 23.43 0 
600 1 29.5141 24.14 0 
601 1 29.5141 25.56 0 
602 1 30.7439 26.27 0 
603 1 30.7439 27.69 0 
604 1 29.5141 28.4 0 
605 1 29.5141 29.82 0 
606 1 30.7439 30.53 0 
607 1 30.7439 31.95 0 
608 1 29.5141 32.66 0 
609 1 29.5141 34.08 0 
610 1 30.7439 34.79 0 
611 1 30.7439 36.21 0 
612 1 29.5141 36.92 0 
613 1 29.5141 38.34 0 
614 1 30.7439 39.05 0 
615 1 30.7439 40.47 0 
616 1 29.5141 41.18 0 
617 1 29.5141 42.6 0 
618 1 30.7439 43.31 0 
619 1 30.7439 44.73 0 
620 1 29.5141 45.44 0 
621 1 29.5141 46.86 0 
622 1 30.7439 47.57 0 
623 1 30.7439 48.99 0 
624 1 29.5141 49.7 0 
625 1 31.9737 0 0 
626 1 33.2034 0.71 0 
627 1 33.2034 2.13 0 
628 1 31.9737 2.84 0 
629 1 31.9737 4.26 0 
630 1 33.2034 4.97 0 
631 1 33.2034 6.39 0 
632 1 31.9737 7.1 0 
633 1 31.9737 8.52 0 
634 1 33.2034 9.23 0 
635 1 33.2034 10.65 0 
636 1 31.9737 11.36 0 
637 1 31.9737 12.78 0 
638 1 33.2034 13.49 0 
639 1 33.2034 14.91 0 
640 1 31.9737 15.62 0 
641 1 31.9737 17.04 0 
642 1 33.2034 17.75 0 
643 1 33.2034 19.17 0 
644 1 31.9737 19.88 0 
645 1 31.9737 21.3 0 
646 1 33.2034 22.01 0 
647 1 33.2034 23.43 0 
648 1 31.9737 24.14 0 
649 1 31.9737 25.56 0 
650 1 33.2034 26.27 0 
651 1 33.2034 27.69 0 
652 1 31.9737 28.4 0 
653 1 31.9737 29.82 0 
654 1 33.2034 30.53 0 
655 1 33.2034 31.95 0 
656 1 31.9737 32.66 0 
657 1 31.9737 34.08 0 
658 1 33.2034 34.79 0 
659 1 33.2034 36.21 0 
660 1 31.9737 36.92 0 
661 1 31.9737 38.34 0 
662 1 33.2034 39.05 0 
663 1 33.2034 40.47 0 
664 1 31.9737 41.18 0 
665 1 31.9737 42.6 0 
666 1 33.2034 43.31 0 
667 1 33.2034 44.73 0 
668 1 31.9737 45.44 0 
669 1 31.9737 46.86 0 
670 1 33.2034 47.57 0 
671 1 33.2034 48.99 0 
672 1 31.9737 49.7 0 
673 1 34.4332 0 0 
674 1 35.6629 0.71 0 
675 1 35.6629 2.13 0 
676 1 34.4332 2.84 0 
677 1 34.4332 4.26 0 
678 1 35.6629 4.97 0 
679 1 35.6629 6.39 0 
680 1 34.4332 7.1 0 
681 1 34.4332 8.52 0 
682 1 35.6629 9.23 0 
683 1 35.6629 10.65 0 
684 1 34.4332 11.36 0 
685 1 34.4332 12.78 0 
686 1 35.6629 13.49 0 
687 1 35.6629 14.91 0 
688 1 34.4332 15.62 0 
689 1 34.4332 17.04 0 
690 1 35.6629 17.75 0 
691 1 35.6629 19.17 0 
692 1 34.4332 19.88 0 
693 1 34.4332 21.3 0 
694 1 35.6629 22.01 0 
695 1 35.6629 23.43 0 
696 1 34.4332 24.14 0 
697 1 34.4332 25.56 0 
698 1 35.6629 26.27 0 
699 1 35.6629 27.69 0 
700 1 34.4332 28.4 0 
701 1 34.4332 29.82 0 
702 1 35.6629 30.53 0 
703 1 35.6629 31.95 0 
704 1 34.4332 32.66 0 
705 1 34.4332 34.08 0 
706 1 35.6629 34.79 0 
707 1 35.6629 36.21 0 
708 1 34.4332 36.92 0 
709 1 34.4332 38.34 0 
710 1 35.6629 39.05 0 
711 1 35.6629 40.47 0 
712 1 34.4332 41.18 0 
713 1 34.4332 42.6 0 
714 1 35.6629 43.31 0 
715 1 35.6629 44.73 0 
716 1 34.4332 45.44 0 
717 1 34.4332 46.86 0 
718 1 35.6629 47.57 0 
719 1 35.6629 48.99 0 
720 1 34.4332 49.7 0 
721 1 36.8927 0 0 
722 1 38.1224 0.71 0 
723 1 38.1224 2.13 0 
724 1 36.8927 2.84 0 
725 1 36.8927 4.26 0 
726 1 38.1224 4.97 0 
727 1 38.1224 6.39 0 
728 1 36.8927 7.1 0 
729 1 36.8927 8.52 0 
730 1 38.1224 9.23 0 
731 1 38.1224 10.65 0 
732 1 36.8927 11.36 0 
733 1 36.8927 12.78 0 
734 1 38.1224 13.49 0 
735 1 38.1224 14.91 0 
736 1 36.8927 15.62 0 
737 1 36.8927 17.04 0 
738 1 38.1224 17.75 0 
739 1 38.1224 19.17 0 
740 1 36.8927 19.88 0 
741 1 36.8927 21.3 0 
742 1 38.1224 22.01 0 
743 1 38.1224 23.43 0 
744 1 36.8927 24.14 0 
745 1 36.8927 25.56 0 
746 1 38.1224 26.27 0 
747 1 38.1224 27.69 0 
748 1 36.8927 28.4 0 
749 1 36.8927 29.82 0 
750 1 38.1224 30.53 0 
751 1 38.1224 31.95 0 
752 1 36.8927 32.66 0 
753 1 36.8927 34.08 0 
754 1 38.1224 34.79 0 
755 1 38.1224 36.21 0 
756 1 36.8927 36.92 0 
757 1 36.8927 38.34 0 
758 1 38.1224 39.05 0 
759 1 38.1224 40.47 0 
760 1 36.8927 41.18 0 
761 1 36.8927 42.6 0 
762 1 38.1224 43.31 0 
763 1 38.1224 44.73 0 
764 1 36.8927 45.44 0 
765 1 36.8927 46.86 0 
766 1 38.1224 47.57 0 
767 1 38.1224 48.99 0 
768 1 36.8927 49.7 0 
769 1 39.3522 0 0 
770 1 40.5819 0.71 0 
771 1 40.5819 2.13 0 
772 1 39.3522 2.84 0 
773 1 39.3522 4.26 0 
774 1 40.5819 4.97 0 
775 1 40.5819 6.39 0 
776 1 39.3522 7.1 0 
777 1 39.3522 8.52 0 
778 1 40.5819 9.23 0 
779 1 40.5819 10.65 0 
780 1 39.3522 11.36 0 
781 1 39.3522 12.78 0 
782 1 40.5819 13.49 0 
783 1 40.5819 14.91 0 
784 1 39.3522 15.62 0 
785 1 39.3522 17.04 0 
786 1 40.5819 17.75 0 
787 1 40.5819 19.17 0 
788 1 39.3522 19.88 0 
789 1 39.3522 21.3 0 
790 1 40.5819 22.01 0 
791 1 40.5819 23.43 0 
792 1 39.3522 24.14 0 
793 1 39.3522 25.56 0 
794 1 40.5819 26.27 0 
795 1 40.5819 27.69 0 
796 1 39.3522 28.4 0 
797 1 39.3522 29.82 0 
798 1 40.5819 30.53 0 
799 1 40.5819 31.95 0 
800 1 39.3522 32.66 0 
801 1 39.3522 34.08 0 
802 1 40.5819 34.79 0 
803 1 40.5819 36.21 0 
804 1 39.3522 36.92 0 
805 1 39.3522 38.34 0 
806 1 40.5819 39.05 0 
807 1 40.5819 40.47 0 
808 1 39.3522 41.18 0 
809 1 39.3522 42.6 0 
810 1 40.5819 43.31 0 
811 1 40.5819 44.73 0 
812 1 39.3522 45.44 0 
813 1 39.3522 46.86 0 
814 1 40.5819 47.57 0 
815 1 40.5819 48.99 0 
816 1 39.3522 49.7 0 
817 1 41.8117 0 0 
818 1 43.0415 0.71 0 
819 1 43.0415 2.13 0 
820 1 41.8117 2.84 0 
821 1 41.8117 4.26 0 
822 1 43.0415 4.97 0 
823 1 43.0415 6.39 0 
824 1 41.8117 7.1 0 
825 1 41.8117 8.52 0 
826 1 43.0415 9.23 0 
827 1 43.0415 10.65 0 
828 1 41.8117 11.36 0 
829 1 41.8117 12.78 0 
830 1 43.0415 13.49 0 
831 1 43.0415 14.91 0 
832 1 41.8117 15.62 0 
833 1 41.8117 17.04 0 
834 1 43.0415 17.75 0 
835 1 43.0415 19.17 0 
836 1 41.8117 19.88 0 
837 1 41.8117 21.3 0 
838 1 43.0415 22.01 0 
839 1 43.0415 23.43 0 
840 1 41.8117 24.14 0 
841 1 41.8117 25.56 0 
842 1 43.0415 26.27 0 
843 1 43.0415 27.69 0 
844 1 41.8117 28.4 0 
845 1 41.8117 29.82 0 
846 1 43.0415 30.53 0 
847 1 43.0415 31.95 0 
848 1 41.8117 32.66 0 
849 1 41.8117 34.08 0 
850 1 43.0415 34.79 0 
851 1 43.0415 36.21 0 
852 1 41.8117 36.92 0 
853 1 41.8117 38.34 0 
854 1 43.0415 39.05 0 
855 1 43.0415 40.47 0 
856 1 41.8117 41.18 0 
857 1 41.8117 42.6 0 
858 1 43.0415 43.31 0 
859 1 43.0415 44.73 0 
860 1 41.8117 45.44 0 
861 1 41.8117 46.86 0 
862 1 43.0415 47.57 0 
863 1 43.0415 48.99 0 
864 1 41.8117 49.7 0 
865 1 44.2712 0 0 
866 1 45.501 0.71 0 
867 1 45.501 2.13 0 
868 1 44.2712 2.84 0 
869 1 44.2712 4.26 0 
870 1 45.501 4.97 0 
871 1 45.501 6.39 0 
872 1 44.2712 7.1 0 
873 1 44.2712 8.52 0 
874 1 45.501 9.23 0 
875 1 45.501 10.65 0 
876 1 44.2712 11.36 0 
877 1 44.2712 12.78 0 
878 1 45.501 13.49 0 
879 1 45.501 14.91 0 
880 1 44.2712 15.62 0 
881 1 44.2712 17.04 0 
882 1 45.501 17.75 0 
883 1 45.501 19.17 0 
884 1 44.2712 19.88 0 
885 1 44.2712 21.3 0 
886 1 45.501 22.01 0 
887 1 45.501 23.43 0 
888 1 44.2712 24.14 0 
889 1 44.2712 25.56 0 
890 1 45.501 26.27 0 
891 1 45.501 27.69 0 
892 1 44.2712 28.4 0 
893 1 44.2712 29.82 0 
894 1 45.501 30.53 0 
895 1 45.501 31.95 0 
896 1 44.2712 32.66 0 
897 1 44.2712 34.08 0 
898 1 45.501 34.79 0 
899 1 45.501 36.21 0 
900 1 44.2712 36.92 0 
901 1 44.2712 38.34 0 
902 1 45.501 39.05 0 
903 1 45.501 40.47 0 
904 1 44.2712 41.18 0 
905 1 44.2712 42.6 0 
906 1 45.501 43.31 0 
907 1 45.501 44.73 0 
908 1 44.2712 45.44 0 
909 1 44.2712 46.86 0 
910 1 45.501 47.57 0 
911 1 45.501 48.99 0 
912 1 44.2712 49.7 0 
913 1 46.7307 0 0 
914 1 47.9605 0.71 0 
915 1 47.9605 2.13 0 
916 1 46.7307 2.84 0 
917 1 46.7307 4.26 0 
918 1 47.9605 4.97 0 
919 1 47.9605 6.39 0 
920 1 46.7307 7.1 0 
921 1 46.7307 8.52 0 
922 1 47.9605 9.23 0 
923 1 47.9605 10.65 0 
924 1 46.7307 11.36 0 
925 1 46.7307 12.78 0 
926 1 47.9605 13.49 0 
927 1 47.9605 14.91 0 
928 1 46.7307 15.62 0 
929 1 46.7307 17.04 0 
930 1 47.9605 17.75 0 
931 1 47.9605 19.17 0 
932 1 46.7307 19.88 0 
933 1 46.7307 21.3 0 
934 1 47.9605 22.01 0 
935 1 47.9605 23.43 0 
936 1 46.7307 24.14 0 
937 1 46.7307 25.56 0 
938 1 47.9605 26.27 0 
939 1 47.9605 27.69 0 
940 1 46.7307 28.4 0 
941 1 46.7307 29.82 0 
942 1 47.9605 30.53 0 
943 1 47.9605 31.95 0 
944 1 46.7307 32.66 0 
945 1 46.7307 34.08 0 
946 1 47.9605 34.79 0 
947 1 47.9605 36.21 0 
948 1 46.7307 36.92 0 
949 1 46.7307 38.34 0 
950 1 47.9605 39.05 0 
951 1 47.9605 40.47 0 
952 1 46.7307 41.18 0 
953 1 46.7307 42.6 0 
954 1 47.9605 43.31 0 
955 1 47.9605 44.73 0 
956 1 46.7307 45.44 0 
957 1 46.7307 46.86 0 
958 1 47.9605 47.57 0 
959 1 47.9605 48.99 0 
960 1 46.7307 49.7 0 
ITEM: TIMESTEP
168
ITEM: NUMBER OF ATOMS
960
ITEM: BOX BOUNDS pp pp pp
4.0192030017574998e-01 4.8788322699824732e+01
4.1768784351372062e-01 5.0702312156486272e+01
-2.5000000000000000e+01 4.8380000000000003e+01
ITEM: ATOMS id type x y z 
1 1 0.40192 50.7023 0 
2 1 1.61158 1.11609 0 
3 1 1.61158 2.51288 0 
4 1 0.40192 3.21128 0 
5 1 0.40192 4.60807 0 
6 1 1.61158 5.30647 0 
7 1 1.61158 6.70327 0 
8 1 0.40192 7.40166 0 
9 1 0.40192 8.79846 0 
10 1 1.61158 9.49686 0 
11 1 1.61158 10.8937 0 
12 1 0.40192 11.592 0 
13 1 0.40192 12.9888 0 
14 1 1.61158 13.6872 0 
15 1 1.61158 15.084 0 
16 1 0.40192 15.7824 0 
17 1 0.40192 17.1792 0 
18 1 1.61158 17.8776 0 
19 1 1.61158 19.2744 0 
20 1 0.40192 19.9728 0 
21 1 0.40192 21.3696 0 
22 1 1.61158 22.068 0 
23 1 1.61158 23.4648 0 
24 1 0.40192 24.1632 0 
25 1 0.40192 25.56 0 
26 1 1.61158 26.2584 0 
27 1 1.61158 27.6552 0 
28 1 0.40192 28.3536 0 
29 1 0.40192 29.7504 0 
30 1 1.61158 30.4488 0 
31 1 1.61158 31.8456 0 
32 1 0.40192 32.544 0 
33 1 0.40192 33.9408 0 
34 1 1.61158 34.6392 0 
35 1 1.61158 36.036 0 
36 1 0.40192 36.7344 0 
37 1 0.40192 38.1312 0 
38 1 1.61158 38.8296 0 
39 1 1.61158 40.2263 0 
40 1 0.40192 40.9247 0 
41 1 0.40192 42.3215 0 
42 1 1.61158 43.0199 0 
43 1 1.61158 44.4167 0 
44 1 0.40192 45.1151 0 
45 1 0.40192 46.5119 0 
46 1 1.61158 47.2103 0 
47 1 1.61158 48.6071 0 
48 1 0.40192 49.3055 0 
49 1 2.82124 50.7023 0 
50 1 4.0309 1.11609 0 
51 1 4.0309 2.51288 0 
52 1 2.82124 3.21128 0 
53 1 2.82124 4.60807 0 
54 1 4.0309 5.30647 0 
55 1 4.0309 6.70327 0 
56 1 2.82124 7.40166 0 
57 1 2.82124 8.79846 0 
58 1 4.0309 9.49686 0 
59 1 4.0309 10.8937 0 
60 1 2.82124 11.592 0 
61 1 2.82124 12.9888 0 
62 1 4.0309 13.6872 0 
63 1 4.0309 15.084 0 
64 1 2.82124 15.7824 0 
65 1 2.82124 17.1792 0 
66 1 4.0309 17.8776 0 
67 1 4.0309 19.2744 0 
68 1 2.82124 19.9728 0 
69 1 2.82124 21.3696 0 
70 1 4.0309 22.068 0 
71 1 4.0309 23.4648 0 
72 1 2.82124 24.1632 0 
73 1 2.82124 25.56 0 
74 1 4.0309 26.2584 0 
75 1 4.0309 27.6552 0 
76 1 2.82124 28.3536 0 
77 1 2.82124 29.7504 0 
78 1 4.0309 30.4488 0 
79 1 4.0309 31.8456 0 
80 1 2.82124 32.544 0 
81 1 2.82124 33.9408 0 
82 1 4.0309 34.6392 0 
83 1 4.0309 36.036 0 
84 1 2.82124 36.7344 0 
85 1 2.82124 38.1312 0 
86 1 4.0309 38.8296 0 
87 1 4.0309 40.2263 0 
88 1 2.82124 40.9247 0 
89 1 2.82124 42.3215 0 
90 1 4.0309 43.0199 0 
91 1 4.0309 44.4167 0 
92 1 2.82124 45.1151 0 
93 1 2.82124 46.5119 0 
94 1 4.0309 47.2103 0 
95 1 4.0309 48.6071 0 
96 1 2.82124 49.3055 0 
97 1 5.24056 50.7023 0 
98 1 6.45022 1.11609 0 
99 1 6.45022 2.51288 0 
100 1 5.24056 3.21128 0 
101 1 5.24056 4.60807 0 
102 1 6.45022 5.30647 0 
103 1 6.45022 6.70327 0 
104 1 5.24056 7.40166 0 
105 1 5.24056 8.79846 0 
106 1 6.45022 9.49686 0 
107 1 6.45022 10.8937 0 
108 1 5.24056 11.592 0 
109 1 5.24056 12.9888 0 
110 1 6.45022 13.6872 0 
111 1 6.45022 15.084 0 
112 1 5.24056 15.7824 0 
113 1 5.24056 17.1792 0 
114 1 6.45022 17.8776 0 
115 1 6.45022 19.2744 0 
116 1 5.24056 19.9728 0 
117 1 5.24056 21.3696 0 
118 1 6.45022 22.068 0 
119 1 6.45022 23.4648 0 
120 1 5.24056 24.1632 0 
121 1 5.24056 25.56 0 
122 1 6.45022 26.2584 0 
123 1 6.45022 27.6552 0 
124 1 5.24056 28.3536 0 
125 1 5.24056 29.7504 0 
126 1 6.45022 30.4488 0 
127 1 6.45022 31.8456 0 
128 1 5.24056 32.544 0 
129 1 5.24056 33.9408 0 
130 1 6.45022 34.6392 0 
131 1 6.45022 36.036 0 
132 1 5.24056 36.7344 0 
133 1 5.24056 38.1312 0 
134 1 6.45022 38.8296 0 
135 1 6.45022 40.2263 0 
136 1 5.24056 40.9247 0 
137 1 5.24056 42.3215 0 
138 1 6.45022 43.0199 0 
139 1 6.45022 44.4167 0 
140 1 5.24056 45.1151 0 
141 1 5.24056 46.5119 0 
142 1 6.45022 47.2103 0 
143 1 6.45022 48.6071 0 
144 1 5.24056 49.3055 0 
145 1 7.65988 0.417688 0 
146 1 8.86954 1.11609 0 
147 1 8.86954 2.51288 0 
148 1 7.65988 3.21128 0 
149 1 7.65988 4.60807 0 
150 1 8.86954 5.30647 0 
151 1 8.86954 6.70327 0 
152 1 7.65988 7.40166 0 
153 1 7.65988 8.79846 0 
154 1 8.86954 9.49686 0 
155 1 8.86954 10.8937 0 
156 1 7.65988 11.592 0 
157 1 7.65988 12.9888 0 
158 1 8.86954 13.6872 0 
159 1 8.86954 15.084 0 
160 1 7.65988 15.7824 0 
161 1 7.65988 17.1792 0 
162 1 8.86954 17.8776 0 
163 1 8.86954 19.2744 0 
164 1 7.65988 19.9728 0 
165 1 7.65988 21.3696 0 
166 1 8.86954 22.068 0 
167 1 8.86954 23.4648 0 
168 1 7.65988 24.1632 0 
169 1 7.65988 25.56 0 
170 1 8.86954 26.2584 0 
171 1 8.86954 27.6552 0 
172 1 7.65988 28.3536 0 
173 1 7.65988 29.7504 0 
174 1 8.86954 30.4488 0 
175 1 8.86954 31.8456 0 
176 1 7.65988 32.544 0 
177 1 7.65988 33.9408 0 
178 1 8.86954 34.6392 0 
179 1 8.86954 36.036 0 
180 1 7.65988 36.7344 0 
181 1 7.65988 38.1312 0 
182 1 8.86954 38.8296 0 
183 1 8.86954 40.2263 0 
184 1 7.65988 40.9247 0 
185 1 7.65988 42.3215 0 
186 1 8.86954 43.0199 0 
187 1 8.86954 44.4167 0 
188 1 7.65988 45.1151 0 
189 1 7.65988 46.5119 0 
190 1 8.86954 47.2103 0 
191 1 8.86954 48.6071 0 
192 1 7.65988 49.3055 0 
193 1 10.0792 50.7023 0 
194 1 11.2889 1.11609 0 
195 1 11.2889 2.51288 0 
196 1 10.0792 3.21128 0 
197 1 10.0792 4.60807 0 
198 1 11.2889 5.30647 0 
199 1 11.2889 6.70327 0 
200 1 10.0792 7.40166 0 
201 1 10.0792 8.79846 0 
202 1 11.2889 9.49686 0 
203 1 11.2889 10.8937 0 
204 1 10.0792 11.592 0 
205 1 10.0792 12.9888 0 
206 1 11.2889 13.6872 0 
207 1 11.2889 15.084 0 
208 1 10.0792 15.7824 0 
209 1 10.0792 17.1792 0 
210 1 11.2889 17.8776 0 
211 1 11.2889 19.2744 0 
212 1 10.0792 19.9728 0 
213 1 10.0792 21.3696 0 
214 1 11.2889 22.068 0 
215 1 11.2889 23.4648 0 
216 1 10.0792 24.1632 0 
217 1 10.0792 25.56 0 
218 1 11.2889 26.2584 0 
219 1 11.2889 27.6552 0 
220 1 10.0792 28.3536 0 
221 1 10.0792 29.7504 0 
222 1 11.2889 30.4488 0 
223 1 11.2889 31.8456 0 
224 1 10.0792 32.544 0 
225 1 10.0792 33.9408 0 
226 1 11.2889 34.6392 0 
227 1 11.2889 36.036 0 
228 1 10.0792 36.7344 0 
229 1 10.0792 38.1312 0 
230 1 11.2889 38.8296 0 
231 1 11.2889 40.2263 0 
232 1 10.0792 40.9247 0 
233 1 10.0792 42.3215 0 
234 1 11.2889 43.0199 0 
235 1 11.2889 44.4167 0 
236 1 10.0792 45.1151 0 
237 1 10.0792 46.5119 0 
238 1 11.2889 47.2103 0 
239 1 11.2889 48.6071 0 
240 1 10.0792 49.3055 0 
241 1 12.4985 50.7023 0 
242 1 13.7082 1.11609 0 
243 1 13.7082 2.51288 0 
244 1 12.4985 3.21128 0 
245 1 12.4985 4.60807 0 
246 1 13.7082 5.30647 0 
247 1 13.7082 6.70327 0 
248 1 12.4985 7.40166 0 
249 1 12.4985 8.79846 0 
250 1 13.7082 9.49686 0 
251 1 13.7082 10.8937 0 
252 1 12.4985 11.592 0 
253 1 12.4985 12.9888 0 
254 1 13.7082 13.6872 0 
255 1 13.7082 15.084 0 
256 1 12.4985 15.7824 0 
257 1 12.4985 17.1792 0 
258 1 13.7082 17.8776 0 
259 1 13.7082 19.2744 0 
260 1 12.4985 19.9728 0 
261 1 12.4985 21.3696 0 
262 1 13.7082 22.068 0 
263 1 13.7082 23.4648 0 
264 1 12.4985 24.1632 0 
265 1 12.4985 25.56 0 
266 1 13.7082 26.2584 0 
267 1 13.7082 27.6552 0 
268 1 12.4985 28.3536 0 
269 1 12.4985 29.7504 0 
270 1 13.7082 30.4488 0 
271 1 13.7082 31.8456 0 
272 1 12.4985 32.544 0 
273 1 12.4985 33.9408 0 
274 1 13.7082 34.6392 0 
275 1 13.7082 36.036 0 
276 1 12.4985 36.7344 0 
277 1 12.4985 38.1312 0 
278 1 13.7082 38.8296 0 
279 1 13.7082 40.2263 0 
280 1 12.4985 40.9247 0 
281 1 12.4985 42.3215 0 
282 1 13.7082 43.0199 0 
283 1 13.7082 44.4167 0 
284 1 12.4985 45.1151 0 
285 1 12.4985 46.5119 0 
286 1 13.7082 47.2103 0 
287 1 13.7082 48.6071 0 
288 1 12.4985 49.3055 0 
289 1 14.9178 50.7023 0 
290 1 16.1275 1.11609 0 
291 1 16.1275 2.51288 0 
292 1 14.9178 3.21128 0 
293 1 14.9178 4.60807 0 
294 1 16.1275 5.30647 0 
295 1 16.1275 6.70327 0 
296 1 14.9178 7.40166 0 
297 1 14.9178 8.79846 0 
298 1 16.1275 9.49686 0 
299 1 16.1275 10.8937 0 
300 1 14.9178 11.592 0 
301 1 14.9178 12.9888 0 
302 1 16.1275 13.6872 0 
303 1 16.1275 15.084 0 
304 1 14.9178 15.7824 0 
305 1 14.9178 17.1792 0 
306 1 16.1275 17.8776 0 
307 1 16.1275 19.2744 0 
308 1 14.9178 19.9728 0 
309 1 14.9178 21.3696 0 
310 1 16.1275 22.068 0 
311 1 16.1275 23.4648 0 
312 1 14.9178 24.1632 0 
313 1 14.9178 25.56 0 
314 1 16.1275 26.2584 0 
315 1 16.1275 27.6552 0 
316 1 14.9178 28.3536 0 
317 1 14.9178 29.7504 0 
318 1 16.1275 30.4488 0 
319 1 16.1275 31.8456 0 
320 1 14.9178 32.544 0 
321 1 14.9178 33.9408 0 
322 1 16.1275 34.6392 0 
323 1 16.1275 36.036 0 
324 1 14.9178 36.7344 0 
325 1 14.9178 38.1312 0 
326 1 16.1275 38.8296 0 
327 1 16.1275 40.2263 0 
328 1 14.9178 40.9247 0 
329 1 14.9178 42.3215 0 
330 1 16.1275 43.0199 0 